Variables = "x points", "y points", "density", "pressure", "temperature", "mach", "u velocity", "v velocity" 
ZONE T="Flow Field", I=200, J=100, F=POINT
-0.100498 0.000394659 0.153002 408273 6721.57 0.142876 -156.198 198.517
-0.101502 0.000398601 0.172215 468771 6814.77 0.020345 23.7787 27.4549
-0.102514 0.000402573 0.174383 475651 6824.49 0.0362822 63.8257 11.4096
-0.103533 0.000406577 0.174636 476367 6825 0.0506473 89.9459 10.1013
-0.104561 0.000410611 0.174556 475996 6823.76 0.0644555 114.72 10.1758
-0.105596 0.000414676 0.174385 475303 6821.91 0.078457 139.773 10.369
-0.106639 0.000418773 0.174157 474408 6819.63 0.0927634 165.331 10.5853
-0.10769 0.000422901 0.173876 473330 6817 0.107426 191.49 10.8326
-0.10875 0.000427062 0.173536 472062 6814.05 0.122507 218.364 11.1217
-0.109817 0.000431254 0.173132 470590 6810.78 0.138087 246.095 11.4603
-0.110893 0.000435479 0.172655 468890 6807.2 0.154265 274.856 11.8536
-0.111977 0.000439736 0.172089 466914 6803.26 0.171173 304.881 12.3043
-0.11307 0.000444027 0.171388 464520 6798.73 0.189095 336.661 12.8156
-0.114171 0.00044835 0.170368 461125 6792.73 0.209006 371.894 13.3843
-0.11528 0.000452707 0.168208 454129 6781.28 0.235129 417.9 13.9892
-0.116398 0.000457098 0.161455 432612 6746.67 0.286335 507.121 14.531
-0.117525 0.000461522 0.138567 360560 6614.8 0.444464 776.263 14.5804
-0.11866 0.000465981 0.0690261 153906 5963.25 1.25975 2044.73 11.3464
-0.119805 0.000470474 0.0146792 4224.22 979.627 9.15896 5698.23 1.22014
-0.120958 0.000475002 0.0138812 900.574 226.053 20.0026 6028.32 0.00194491
-0.122119 0.000479565 0.01388 900 225.929 20.0098 6028.83 -3.48559e-06
-0.12329 0.000484163 0.01388 900 225.929 20.0098 6028.83 -3.4833e-06
-0.12447 0.000488796 0.01388 900 225.929 20.0098 6028.83 -3.48042e-06
-0.125659 0.000493466 0.01388 900 225.929 20.0098 6028.83 -3.47742e-06
-0.126857 0.000498171 0.01388 900 225.929 20.0098 6028.83 -3.4743e-06
-0.128065 0.000502913 0.01388 900 225.929 20.0098 6028.83 -3.47105e-06
-0.129282 0.000507691 0.01388 900 225.929 20.0098 6028.83 -3.46766e-06
-0.130508 0.000512507 0.01388 900 225.929 20.0098 6028.83 -3.46413e-06
-0.131744 0.000517359 0.01388 900 225.929 20.0098 6028.83 -3.46045e-06
-0.132989 0.000522249 0.01388 900 225.929 20.0098 6028.83 -3.45661e-06
-0.134244 0.000527177 0.01388 900 225.929 20.0098 6028.83 -3.45261e-06
-0.135508 0.000532143 0.01388 900 225.929 20.0098 6028.83 -3.44844e-06
-0.136783 0.000537147 0.01388 900 225.929 20.0098 6028.83 -3.44408e-06
-0.138067 0.00054219 0.01388 900 225.929 20.0098 6028.83 -3.43954e-06
-0.139361 0.000547272 0.01388 900 225.929 20.0098 6028.83 -3.4348e-06
-0.140665 0.000552393 0.01388 900 225.929 20.0098 6028.83 -3.42986e-06
-0.141979 0.000557554 0.01388 900 225.929 20.0098 6028.83 -3.42469e-06
-0.143303 0.000562754 0.01388 900 225.929 20.0098 6028.83 -3.4193e-06
-0.144638 0.000567995 0.01388 900 225.929 20.0098 6028.83 -3.41367e-06
-0.145983 0.000573276 0.01388 900 225.929 20.0098 6028.83 -3.40778e-06
-0.147338 0.000578598 0.01388 900 225.929 20.0098 6028.83 -3.40162e-06
-0.148704 0.000583962 0.01388 900 225.929 20.0098 6028.83 -3.39519e-06
-0.15008 0.000589366 0.01388 900 225.929 20.0098 6028.83 -3.38845e-06
-0.151467 0.000594812 0.01388 900 225.929 20.0098 6028.83 -3.38141e-06
-0.152864 0.000600301 0.01388 900 225.929 20.0098 6028.83 -3.37404e-06
-0.154273 0.000605832 0.01388 900 225.929 20.0098 6028.83 -3.36632e-06
-0.155692 0.000611405 0.01388 900 225.929 20.0098 6028.83 -3.35824e-06
-0.157122 0.000617022 0.01388 900 225.929 20.0098 6028.83 -3.34977e-06
-0.158563 0.000622682 0.01388 900 225.929 20.0098 6028.83 -3.34089e-06
-0.160016 0.000628386 0.01388 900 225.929 20.0098 6028.83 -3.33157e-06
-0.161479 0.000634133 0.01388 900 225.929 20.0098 6028.83 -3.3218e-06
-0.162954 0.000639925 0.01388 900 225.929 20.0098 6028.83 -3.31155e-06
-0.164441 0.000645762 0.01388 900 225.929 20.0098 6028.83 -3.30078e-06
-0.165938 0.000651644 0.01388 900 225.929 20.0098 6028.83 -3.28947e-06
-0.167448 0.000657572 0.01388 900 225.929 20.0098 6028.83 -3.27759e-06
-0.168969 0.000663545 0.01388 900 225.929 20.0098 6028.83 -3.26509e-06
-0.170502 0.000669565 0.01388 900 225.929 20.0098 6028.83 -3.25196e-06
-0.172046 0.00067563 0.01388 900 225.929 20.0098 6028.83 -3.23813e-06
-0.173603 0.000681743 0.01388 900 225.929 20.0098 6028.83 -3.22358e-06
-0.175172 0.000687903 0.01388 900 225.929 20.0098 6028.83 -3.20824e-06
-0.176752 0.000694111 0.01388 900 225.929 20.0098 6028.83 -3.19209e-06
-0.178345 0.000700366 0.01388 900 225.929 20.0098 6028.83 -3.17505e-06
-0.17995 0.00070667 0.01388 900 225.929 20.0098 6028.83 -3.15707e-06
-0.181568 0.000713023 0.01388 900 225.929 20.0098 6028.83 -3.13809e-06
-0.183198 0.000719424 0.01388 900 225.929 20.0098 6028.83 -3.11805e-06
-0.184841 0.000725875 0.01388 900 225.929 20.0098 6028.83 -3.09686e-06
-0.186496 0.000732376 0.01388 900 225.929 20.0098 6028.83 -3.07445e-06
-0.188164 0.000738928 0.01388 900 225.929 20.0098 6028.83 -3.05073e-06
-0.189846 0.000745529 0.01388 900 225.929 20.0098 6028.83 -3.02561e-06
-0.19154 0.000752182 0.01388 900 225.929 20.0098 6028.83 -2.999e-06
-0.193247 0.000758886 0.01388 900 225.929 20.0098 6028.83 -2.97077e-06
-0.194967 0.000765642 0.01388 900 225.929 20.0098 6028.83 -2.94082e-06
-0.196701 0.00077245 0.01388 900 225.929 20.0098 6028.83 -2.90901e-06
-0.198448 0.000779311 0.01388 900 225.929 20.0098 6028.83 -2.8752e-06
-0.200208 0.000786225 0.01388 900 225.929 20.0098 6028.83 -2.83923e-06
-0.201982 0.000793192 0.01388 900 225.929 20.0098 6028.83 -2.80095e-06
-0.20377 0.000800213 0.01388 900 225.929 20.0098 6028.83 -2.76016e-06
-0.205572 0.000807288 0.01388 900 225.929 20.0098 6028.83 -2.71667e-06
-0.207387 0.000814418 0.01388 900 225.929 20.0098 6028.83 -2.67025e-06
-0.209217 0.000821603 0.01388 900 225.929 20.0098 6028.83 -2.62066e-06
-0.211061 0.000828843 0.01388 900 225.929 20.0098 6028.83 -2.56765e-06
-0.212919 0.00083614 0.01388 900 225.929 20.0098 6028.83 -2.51091e-06
-0.214791 0.000843493 0.01388 900 225.929 20.0098 6028.83 -2.45013e-06
-0.216678 0.000850902 0.01388 900 225.929 20.0098 6028.83 -2.38496e-06
-0.218579 0.000858369 0.01388 900 225.929 20.0098 6028.83 -2.31501e-06
-0.220495 0.000865894 0.01388 900 225.929 20.0098 6028.83 -2.23986e-06
-0.222426 0.000873476 0.01388 900 225.929 20.0098 6028.83 -2.15902e-06
-0.224372 0.000881117 0.01388 900 225.929 20.0098 6028.83 -2.07199e-06
-0.226333 0.000888818 0.01388 900 225.929 20.0098 6028.83 -1.97817e-06
-0.228309 0.000896577 0.01388 900 225.929 20.0098 6028.83 -1.87694e-06
-0.2303 0.000904397 0.01388 900 225.929 20.0098 6028.83 -1.76757e-06
-0.232306 0.000912277 0.01388 900 225.929 20.0098 6028.83 -1.64929e-06
-0.234329 0.000920218 0.01388 900 225.929 20.0098 6028.83 -1.52121e-06
-0.236366 0.000928221 0.01388 900 225.929 20.0098 6028.83 -1.38236e-06
-0.23842 0.000936285 0.01388 900 225.929 20.0098 6028.83 -1.23166e-06
-0.240489 0.000944411 0.01388 900 225.929 20.0098 6028.83 -1.0679e-06
-0.242574 0.0009526 0.01388 900 225.929 20.0098 6028.83 -8.89726e-07
-0.244676 0.000960853 0.01388 900 225.929 20.0098 6028.83 -6.95636e-07
-0.246793 0.000969169 0.01388 900 225.929 20.0098 6028.83 -4.83945e-07
-0.248927 0.00097755 0.01388 900 225.929 20.0098 6028.83 -2.52769e-07
-0.100492 0.00118395 0.172211 468751 6814.68 0.0313631 -11.0887 54.8811
-0.101496 0.00119578 0.174461 475933 6825.1 0.0265849 31.1465 35.878
-0.102508 0.00120769 0.174729 476793 6826.36 0.0385461 61.703 30.6519
-0.103527 0.0012197 0.174655 476490 6825.52 0.0522174 88.3379 30.0948
-0.104554 0.00123181 0.174498 475875 6823.98 0.0659974 113.951 30.3749
-0.105589 0.001244 0.1743 475097 6822.01 0.0799615 139.48 30.8391
-0.106633 0.00125629 0.17406 474164 6819.68 0.0942026 165.284 31.4158
-0.107684 0.00126868 0.173771 473066 6817.03 0.108796 191.573 32.1154
-0.108743 0.00128116 0.173428 471787 6814.06 0.123818 218.52 32.9551
-0.109811 0.00129374 0.173021 470306 6810.79 0.139353 246.295 33.9493
-0.110886 0.00130641 0.172541 468599 6807.21 0.1555 275.088 35.1099
-0.11197 0.00131918 0.171973 466617 6803.26 0.172395 305.142 36.4448
-0.113063 0.00133205 0.171271 464219 6798.71 0.190318 336.957 37.9619
-0.114164 0.00134502 0.170251 460822 6792.71 0.210243 372.235 39.6527
-0.115273 0.00135809 0.168094 453834 6781.24 0.236372 418.299 41.4554
-0.116391 0.00137127 0.161356 432356 6746.63 0.2875 507.572 43.0728
-0.117518 0.00138454 0.138513 360427 6614.82 0.445283 776.636 43.2177
-0.118653 0.00139792 0.0691114 154134 5964.28 1.25845 2042.61 33.5141
-0.119797 0.0014114 0.0146801 4229.56 980.848 9.15283 5697.85 3.62275
-0.12095 0.00142498 0.0138812 900.574 226.054 20.0026 6028.32 0.0058108
-0.122112 0.00143867 0.01388 900 225.929 20.0098 6028.83 -3.32603e-06
-0.123283 0.00145246 0.01388 900 225.929 20.0098 6028.83 -3.31839e-06
-0.124463 0.00146636 0.01388 900 225.929 20.0098 6028.83 -3.30899e-06
-0.125652 0.00148037 0.01388 900 225.929 20.0098 6028.83 -3.29921e-06
-0.12685 0.00149449 0.01388 900 225.929 20.0098 6028.83 -3.28906e-06
-0.128057 0.00150871 0.01388 900 225.929 20.0098 6028.83 -3.27851e-06
-0.129274 0.00152305 0.01388 900 225.929 20.0098 6028.83 -3.26754e-06
-0.1305 0.00153749 0.01388 900 225.929 20.0098 6028.83 -3.25614e-06
-0.131736 0.00155205 0.01388 900 225.929 20.0098 6028.83 -3.2443e-06
-0.132981 0.00156672 0.01388 900 225.929 20.0098 6028.83 -3.23199e-06
-0.134236 0.00158151 0.01388 900 225.929 20.0098 6028.83 -3.2192e-06
-0.1355 0.0015964 0.01388 900 225.929 20.0098 6028.83 -3.20591e-06
-0.136775 0.00161142 0.01388 900 225.929 20.0098 6028.83 -3.19209e-06
-0.138059 0.00162655 0.01388 900 225.929 20.0098 6028.83 -3.17774e-06
-0.139353 0.00164179 0.01388 900 225.929 20.0098 6028.83 -3.16282e-06
-0.140657 0.00165715 0.01388 900 225.929 20.0098 6028.83 -3.14731e-06
-0.141971 0.00167264 0.01388 900 225.929 20.0098 6028.83 -3.1312e-06
-0.143295 0.00168824 0.01388 900 225.929 20.0098 6028.83 -3.11445e-06
-0.14463 0.00170396 0.01388 900 225.929 20.0098 6028.83 -3.09704e-06
-0.145975 0.00171981 0.01388 900 225.929 20.0098 6028.83 -3.07895e-06
-0.14733 0.00173577 0.01388 900 225.929 20.0098 6028.83 -3.06015e-06
-0.148695 0.00175186 0.01388 900 225.929 20.0098 6028.83 -3.04061e-06
-0.150072 0.00176808 0.01388 900 225.929 20.0098 6028.83 -3.02031e-06
-0.151459 0.00178442 0.01388 900 225.929 20.0098 6028.83 -2.99921e-06
-0.152856 0.00180088 0.01388 900 225.929 20.0098 6028.83 -2.97729e-06
-0.154265 0.00181747 0.01388 900 225.929 20.0098 6028.83 -2.95451e-06
-0.155684 0.0018342 0.01388 900 225.929 20.0098 6028.83 -2.93085e-06
-0.157114 0.00185105 0.01388 900 225.929 20.0098 6028.83 -2.90626e-06
-0.158555 0.00186803 0.01388 900 225.929 20.0098 6028.83 -2.88072e-06
-0.160008 0.00188514 0.01388 900 225.929 20.0098 6028.83 -2.85419e-06
-0.161471 0.00190238 0.01388 900 225.929 20.0098 6028.83 -2.82663e-06
-0.162946 0.00191976 0.01388 900 225.929 20.0098 6028.83 -2.79801e-06
-0.164432 0.00193727 0.01388 900 225.929 20.0098 6028.83 -2.76829e-06
-0.16593 0.00195492 0.01388 900 225.929 20.0098 6028.83 -2.73744e-06
-0.16744 0.0019727 0.01388 900 225.929 20.0098 6028.83 -2.70541e-06
-0.168961 0.00199062 0.01388 900 225.929 20.0098 6028.83 -2.67216e-06
-0.170494 0.00200868 0.01388 900 225.929 20.0098 6028.83 -2.63765e-06
-0.172038 0.00202688 0.01388 900 225.929 20.0098 6028.83 -2.60185e-06
-0.173595 0.00204522 0.01388 900 225.929 20.0098 6028.83 -2.56471e-06
-0.175163 0.0020637 0.01388 900 225.929 20.0098 6028.83 -2.52619e-06
-0.176744 0.00208232 0.01388 900 225.929 20.0098 6028.83 -2.48624e-06
-0.178337 0.00210109 0.01388 900 225.929 20.0098 6028.83 -2.44484e-06
-0.179942 0.00212 0.01388 900 225.929 20.0098 6028.83 -2.40192e-06
-0.18156 0.00213906 0.01388 900 225.929 20.0098 6028.83 -2.35745e-06
-0.18319 0.00215827 0.01388 900 225.929 20.0098 6028.83 -2.31141e-06
-0.184833 0.00217762 0.01388 900 225.929 20.0098 6028.83 -2.26373e-06
-0.186488 0.00219712 0.01388 900 225.929 20.0098 6028.83 -2.21439e-06
-0.188156 0.00221678 0.01388 900 225.929 20.0098 6028.83 -2.16335e-06
-0.189837 0.00223658 0.01388 900 225.929 20.0098 6028.83 -2.11058e-06
-0.191532 0.00225654 0.01388 900 225.929 20.0098 6028.83 -2.05605e-06
-0.193239 0.00227666 0.01388 900 225.929 20.0098 6028.83 -1.99972e-06
-0.194959 0.00229693 0.01388 900 225.929 20.0098 6028.83 -1.94159e-06
-0.196693 0.00231735 0.01388 900 225.929 20.0098 6028.83 -1.88164e-06
-0.19844 0.00233794 0.01388 900 225.929 20.0098 6028.83 -1.81985e-06
-0.2002 0.00235868 0.01388 900 225.929 20.0098 6028.83 -1.75622e-06
-0.201975 0.00237958 0.01388 900 225.929 20.0098 6028.83 -1.69076e-06
-0.203762 0.00240065 0.01388 900 225.929 20.0098 6028.83 -1.62349e-06
-0.205564 0.00242187 0.01388 900 225.929 20.0098 6028.83 -1.55443e-06
-0.20738 0.00244326 0.01388 900 225.929 20.0098 6028.83 -1.48364e-06
-0.209209 0.00246482 0.01388 900 225.929 20.0098 6028.83 -1.41116e-06
-0.211053 0.00248654 0.01388 900 225.929 20.0098 6028.83 -1.33707e-06
-0.212911 0.00250843 0.01388 900 225.929 20.0098 6028.83 -1.26148e-06
-0.214784 0.00253049 0.01388 900 225.929 20.0098 6028.83 -1.18451e-06
-0.21667 0.00255272 0.01388 900 225.929 20.0098 6028.83 -1.10631e-06
-0.218572 0.00257513 0.01388 900 225.929 20.0098 6028.83 -1.02706e-06
-0.220488 0.0025977 0.01388 900 225.929 20.0098 6028.83 -9.46994e-07
-0.222419 0.00262045 0.01388 900 225.929 20.0098 6028.83 -8.66367e-07
-0.224365 0.00264338 0.01388 900 225.929 20.0098 6028.83 -7.85495e-07
-0.226326 0.00266648 0.01388 900 225.929 20.0098 6028.83 -7.04746e-07
-0.228302 0.00268976 0.01388 900 225.929 20.0098 6028.83 -6.2455e-07
-0.230293 0.00271322 0.01388 900 225.929 20.0098 6028.83 -5.45415e-07
-0.232299 0.00273686 0.01388 900 225.929 20.0098 6028.83 -4.67926e-07
-0.234322 0.00276069 0.01388 900 225.929 20.0098 6028.83 -3.92764e-07
-0.236359 0.0027847 0.01388 900 225.929 20.0098 6028.83 -3.20716e-07
-0.238413 0.00280889 0.01388 900 225.929 20.0098 6028.83 -2.52689e-07
-0.240482 0.00283327 0.01388 900 225.929 20.0098 6028.83 -1.89731e-07
-0.242568 0.00285784 0.01388 900 225.929 20.0098 6028.83 -1.33049e-07
-0.244669 0.0028826 0.01388 900 225.929 20.0098 6028.83 -8.40254e-08
-0.246787 0.00290755 0.01388 900 225.929 20.0098 6028.83 -4.42507e-08
-0.248921 0.0029327 0.01388 900 225.929 20.0098 6028.83 -1.55468e-08
-0.10048 0.00197317 0.174641 476490 6825.79 0.0311596 9.57722 54.8611
-0.101484 0.00199288 0.174838 477179 6827.13 0.0355374 35.8887 52.4157
-0.102495 0.00201274 0.174759 476932 6826.81 0.044878 62.249 50.5977
-0.103514 0.00203276 0.174624 476439 6825.75 0.0567858 88.2009 50.211
-0.104541 0.00205293 0.174455 475791 6824.18 0.0697101 113.89 50.4601
-0.105576 0.00207325 0.174252 475000 6822.2 0.0831956 139.591 51.0448
-0.106619 0.00209374 0.174009 474060 6819.86 0.0971311 165.537 51.8894
-0.107671 0.00211438 0.17372 472957 6817.2 0.111515 191.928 52.983
-0.10873 0.00213518 0.173376 471677 6814.23 0.12639 218.948 54.3332
-0.109797 0.00215614 0.17297 470197 6810.95 0.141825 246.778 55.9528
-0.110873 0.00217726 0.172492 468493 6807.37 0.157909 275.616 57.8554
-0.111957 0.00219855 0.171925 466516 6803.41 0.174771 305.713 60.0532
-0.113049 0.00222 0.171227 464125 6798.86 0.192689 337.573 62.5569
-0.11415 0.00224162 0.170211 460738 6792.83 0.212622 372.901 65.3538
-0.115259 0.0022634 0.168063 453770 6781.35 0.238724 419.003 68.3409
-0.116377 0.00228536 0.161348 432351 6746.75 0.289616 508.217 71.0187
-0.117504 0.00230748 0.138558 360573 6615.13 0.446529 776.784 71.2325
-0.118639 0.00232977 0.0693867 154857 5967.32 1.25436 2036.2 55.0763
-0.119783 0.00235224 0.0146839 4247.48 984.875 9.13253 5696.49 5.99814
-0.120936 0.00237488 0.0138812 900.578 226.054 20.0025 6028.32 0.00967112
-0.122098 0.00239769 0.01388 900 225.929 20.0098 6028.83 -3.10854e-06
-0.123268 0.00242068 0.01388 900 225.929 20.0098 6028.83 -3.09377e-06
-0.124448 0.00244385 0.01388 900 225.929 20.0098 6028.83 -3.07606e-06
-0.125637 0.0024672 0.01388 900 225.929 20.0098 6028.83 -3.05774e-06
-0.126835 0.00249072 0.01388 900 225.929 20.0098 6028.83 -3.03879e-06
-0.128042 0.00251443 0.01388 900 225.929 20.0098 6028.83 -3.01919e-06
-0.129259 0.00253832 0.01388 900 225.929 20.0098 6028.83 -2.99892e-06
-0.130485 0.0025624 0.01388 900 225.929 20.0098 6028.83 -2.97795e-06
-0.131721 0.00258667 0.01388 900 225.929 20.0098 6028.83 -2.95628e-06
-0.132966 0.00261112 0.01388 900 225.929 20.0098 6028.83 -2.93387e-06
-0.134221 0.00263576 0.01388 900 225.929 20.0098 6028.83 -2.91072e-06
-0.135485 0.00266059 0.01388 900 225.929 20.0098 6028.83 -2.88679e-06
-0.136759 0.00268561 0.01388 900 225.929 20.0098 6028.83 -2.86208e-06
-0.138043 0.00271083 0.01388 900 225.929 20.0098 6028.83 -2.83655e-06
-0.139337 0.00273624 0.01388 900 225.929 20.0098 6028.83 -2.81019e-06
-0.140641 0.00276184 0.01388 900 225.929 20.0098 6028.83 -2.78297e-06
-0.141955 0.00278765 0.01388 900 225.929 20.0098 6028.83 -2.75488e-06
-0.143279 0.00281365 0.01388 900 225.929 20.0098 6028.83 -2.7259e-06
-0.144614 0.00283986 0.01388 900 225.929 20.0098 6028.83 -2.69601e-06
-0.145959 0.00286627 0.01388 900 225.929 20.0098 6028.83 -2.66518e-06
-0.147314 0.00289288 0.01388 900 225.929 20.0098 6028.83 -2.63341e-06
-0.148679 0.0029197 0.01388 900 225.929 20.0098 6028.83 -2.60066e-06
-0.150056 0.00294672 0.01388 900 225.929 20.0098 6028.83 -2.56693e-06
-0.151442 0.00297395 0.01388 900 225.929 20.0098 6028.83 -2.53219e-06
-0.15284 0.0030014 0.01388 900 225.929 20.0098 6028.83 -2.49644e-06
-0.154248 0.00302905 0.01388 900 225.929 20.0098 6028.83 -2.45964e-06
-0.155668 0.00305692 0.01388 900 225.929 20.0098 6028.83 -2.4218e-06
-0.157098 0.00308501 0.01388 900 225.929 20.0098 6028.83 -2.3829e-06
-0.158539 0.00311331 0.01388 900 225.929 20.0098 6028.83 -2.34293e-06
-0.159991 0.00314183 0.01388 900 225.929 20.0098 6028.83 -2.30189e-06
-0.161455 0.00317058 0.01388 900 225.929 20.0098 6028.83 -2.25976e-06
-0.16293 0.00319954 0.01388 900 225.929 20.0098 6028.83 -2.21653e-06
-0.164416 0.00322873 0.01388 900 225.929 20.0098 6028.83 -2.17221e-06
-0.165914 0.00325814 0.01388 900 225.929 20.0098 6028.83 -2.12679e-06
-0.167423 0.00328778 0.01388 900 225.929 20.0098 6028.83 -2.08028e-06
-0.168944 0.00331765 0.01388 900 225.929 20.0098 6028.83 -2.03269e-06
-0.170477 0.00334775 0.01388 900 225.929 20.0098 6028.83 -1.98401e-06
-0.172022 0.00337809 0.01388 900 225.929 20.0098 6028.83 -1.93427e-06
-0.173578 0.00340865 0.01388 900 225.929 20.0098 6028.83 -1.88348e-06
-0.175147 0.00343946 0.01388 900 225.929 20.0098 6028.83 -1.83166e-06
-0.176728 0.0034705 0.01388 900 225.929 20.0098 6028.83 -1.77884e-06
-0.178321 0.00350178 0.01388 900 225.929 20.0098 6028.83 -1.72505e-06
-0.179926 0.00353331 0.01388 900 225.929 20.0098 6028.83 -1.67032e-06
-0.181544 0.00356507 0.01388 900 225.929 20.0098 6028.83 -1.6147e-06
-0.183174 0.00359709 0.01388 900 225.929 20.0098 6028.83 -1.55823e-06
-0.184816 0.00362935 0.01388 900 225.929 20.0098 6028.83 -1.50097e-06
-0.186472 0.00366186 0.01388 900 225.929 20.0098 6028.83 -1.44298e-06
-0.18814 0.00369462 0.01388 900 225.929 20.0098 6028.83 -1.38432e-06
-0.189821 0.00372763 0.01388 900 225.929 20.0098 6028.83 -1.32509e-06
-0.191516 0.0037609 0.01388 900 225.929 20.0098 6028.83 -1.26535e-06
-0.193223 0.00379443 0.01388 900 225.929 20.0098 6028.83 -1.2052e-06
-0.194943 0.00382821 0.01388 900 225.929 20.0098 6028.83 -1.14476e-06
-0.196677 0.00386226 0.01388 900 225.929 20.0098 6028.83 -1.08412e-06
-0.198424 0.00389657 0.01388 900 225.929 20.0098 6028.83 -1.02342e-06
-0.200185 0.00393114 0.01388 900 225.929 20.0098 6028.83 -9.62781e-07
-0.201959 0.00396599 0.01388 900 225.929 20.0098 6028.83 -9.02353e-07
-0.203747 0.0040011 0.01388 900 225.929 20.0098 6028.83 -8.42286e-07
-0.205549 0.00403648 0.01388 900 225.929 20.0098 6028.83 -7.82745e-07
-0.207364 0.00407214 0.01388 900 225.929 20.0098 6028.83 -7.23905e-07
-0.209194 0.00410807 0.01388 900 225.929 20.0098 6028.83 -6.65951e-07
-0.211038 0.00414428 0.01388 900 225.929 20.0098 6028.83 -6.09079e-07
-0.212896 0.00418077 0.01388 900 225.929 20.0098 6028.83 -5.53489e-07
-0.214768 0.00421754 0.01388 900 225.929 20.0098 6028.83 -4.99396e-07
-0.216655 0.0042546 0.01388 900 225.929 20.0098 6028.83 -4.4702e-07
-0.218557 0.00429194 0.01388 900 225.929 20.0098 6028.83 -3.96586e-07
-0.220473 0.00432957 0.01388 900 225.929 20.0098 6028.83 -3.48324e-07
-0.222404 0.00436749 0.01388 900 225.929 20.0098 6028.83 -3.02463e-07
-0.22435 0.0044057 0.01388 900 225.929 20.0098 6028.83 -2.59232e-07
-0.226311 0.00444421 0.01388 900 225.929 20.0098 6028.83 -2.18858e-07
-0.228287 0.00448302 0.01388 900 225.929 20.0098 6028.83 -1.81552e-07
-0.230279 0.00452213 0.01388 900 225.929 20.0098 6028.83 -1.47511e-07
-0.232286 0.00456154 0.01388 900 225.929 20.0098 6028.83 -1.16908e-07
-0.234308 0.00460125 0.01388 900 225.929 20.0098 6028.83 -8.98865e-08
-0.236346 0.00464128 0.01388 900 225.929 20.0098 6028.83 -6.65497e-08
-0.2384 0.00468161 0.01388 900 225.929 20.0098 6028.83 -4.69477e-08
-0.240469 0.00472225 0.01388 900 225.929 20.0098 6028.83 -3.10635e-08
-0.242555 0.00476321 0.01388 900 225.929 20.0098 6028.83 -1.88008e-08
-0.244656 0.00480448 0.01388 900 225.929 20.0098 6028.83 -9.96148e-09
-0.246774 0.00484607 0.01388 900 225.929 20.0098 6028.83 -4.22466e-09
-0.248909 0.00488798 0.01388 900 225.929 20.0098 6028.83 -1.12034e-09
-0.100461 0.00276227 0.174888 477335 6827.33 0.0409908 13.6025 72.0009
-0.101465 0.00278986 0.174811 477140 6827.37 0.0453188 38.2446 71.4167
-0.102476 0.00281767 0.174691 476757 6826.81 0.0530965 63.5178 70.5228
-0.103495 0.00284569 0.174552 476256 6825.75 0.0634371 88.9925 70.2527
-0.104522 0.00287392 0.174387 475622 6824.21 0.0752739 114.534 70.536
-0.105557 0.00290238 0.174188 474844 6822.25 0.0880392 140.221 71.2543
-0.1066 0.00293105 0.173948 473911 6819.93 0.10149 166.199 72.3561
-0.107651 0.00295995 0.173661 472814 6817.26 0.11554 192.634 73.8282
-0.10871 0.00298907 0.173319 471539 6814.29 0.130186 219.698 75.6749
-0.109777 0.00301841 0.172915 470066 6811.01 0.145465 247.571 77.9086
-0.110852 0.00304799 0.17244 468369 6807.42 0.161451 276.448 80.5451
-0.111936 0.00307779 0.171878 466400 6803.45 0.17826 306.584 83.6004
-0.113029 0.00310782 0.171184 464019 6798.87 0.19616 338.484 87.0884
-0.114129 0.00313808 0.170176 460646 6792.83 0.216089 373.846 90.9905
-0.115238 0.00316858 0.16804 453706 6781.32 0.24213 419.949 95.1592
-0.116356 0.00319931 0.161354 432369 6746.77 0.292637 508.993 98.8833
-0.117482 0.00323028 0.13864 360816 6615.54 0.448199 776.692 99.1268
-0.118618 0.00326149 0.069836 156038 5972.25 1.24753 2025.51 76.6085
-0.119761 0.00329294 0.0146904 4279.47 992.086 9.09639 5694 8.41258
-0.120914 0.00332464 0.0138812 900.587 226.057 20.0024 6028.31 0.0136307
-0.122076 0.00335658 0.01388 900 225.929 20.0098 6028.83 -2.82004e-06
-0.123246 0.00338877 0.01388 900 225.929 20.0098 6028.83 -2.79706e-06
-0.124426 0.0034212 0.01388 900 225.929 20.0098 6028.83 -2.77004e-06
-0.125615 0.00345389 0.01388 900 225.929 20.0098 6028.83 -2.74226e-06
-0.126813 0.00348683 0.01388 900 225.929 20.0098 6028.83 -2.71371e-06
-0.12802 0.00352002 0.01388 900 225.929 20.0098 6028.83 -2.68437e-06
-0.129236 0.00355347 0.01388 900 225.929 20.0098 6028.83 -2.65423e-06
-0.130462 0.00358718 0.01388 900 225.929 20.0098 6028.83 -2.62329e-06
-0.131698 0.00362115 0.01388 900 225.929 20.0098 6028.83 -2.59152e-06
-0.132943 0.00365538 0.01388 900 225.929 20.0098 6028.83 -2.55893e-06
-0.134197 0.00368988 0.01388 900 225.929 20.0098 6028.83 -2.5255e-06
-0.135462 0.00372464 0.01388 900 225.929 20.0098 6028.83 -2.49123e-06
-0.136736 0.00375968 0.01388 900 225.929 20.0098 6028.83 -2.45611e-06
-0.13802 0.00379498 0.01388 900 225.929 20.0098 6028.83 -2.42014e-06
-0.139314 0.00383056 0.01388 900 225.929 20.0098 6028.83 -2.38331e-06
-0.140618 0.00386641 0.01388 900 225.929 20.0098 6028.83 -2.34563e-06
-0.141932 0.00390254 0.01388 900 225.929 20.0098 6028.83 -2.30708e-06
-0.143256 0.00393895 0.01388 900 225.929 20.0098 6028.83 -2.26769e-06
-0.14459 0.00397564 0.01388 900 225.929 20.0098 6028.83 -2.22743e-06
-0.145935 0.00401261 0.01388 900 225.929 20.0098 6028.83 -2.18633e-06
-0.14729 0.00404987 0.01388 900 225.929 20.0098 6028.83 -2.14439e-06
-0.148655 0.00408742 0.01388 900 225.929 20.0098 6028.83 -2.10161e-06
-0.150031 0.00412525 0.01388 900 225.929 20.0098 6028.83 -2.05802e-06
-0.151418 0.00416338 0.01388 900 225.929 20.0098 6028.83 -2.01362e-06
-0.152816 0.00420181 0.01388 900 225.929 20.0098 6028.83 -1.96843e-06
-0.154224 0.00424053 0.01388 900 225.929 20.0098 6028.83 -1.92247e-06
-0.155643 0.00427955 0.01388 900 225.929 20.0098 6028.83 -1.87577e-06
-0.157073 0.00431888 0.01388 900 225.929 20.0098 6028.83 -1.82834e-06
-0.158514 0.0043585 0.01388 900 225.929 20.0098 6028.83 -1.78023e-06
-0.159967 0.00439844 0.01388 900 225.929 20.0098 6028.83 -1.73146e-06
-0.16143 0.00443868 0.01388 900 225.929 20.0098 6028.83 -1.68207e-06
-0.162905 0.00447923 0.01388 900 225.929 20.0098 6028.83 -1.63209e-06
-0.164392 0.0045201 0.01388 900 225.929 20.0098 6028.83 -1.58158e-06
-0.165889 0.00456128 0.01388 900 225.929 20.0098 6028.83 -1.53057e-06
-0.167399 0.00460279 0.01388 900 225.929 20.0098 6028.83 -1.47912e-06
-0.16892 0.00464461 0.01388 900 225.929 20.0098 6028.83 -1.42729e-06
-0.170453 0.00468676 0.01388 900 225.929 20.0098 6028.83 -1.37512e-06
-0.171997 0.00472923 0.01388 900 225.929 20.0098 6028.83 -1.3227e-06
-0.173554 0.00477203 0.01388 900 225.929 20.0098 6028.83 -1.27008e-06
-0.175122 0.00481516 0.01388 900 225.929 20.0098 6028.83 -1.21734e-06
-0.176703 0.00485862 0.01388 900 225.929 20.0098 6028.83 -1.16455e-06
-0.178296 0.00490242 0.01388 900 225.929 20.0098 6028.83 -1.1118e-06
-0.179901 0.00494656 0.01388 900 225.929 20.0098 6028.83 -1.05916e-06
-0.181519 0.00499105 0.01388 900 225.929 20.0098 6028.83 -1.00674e-06
-0.183149 0.00503587 0.01388 900 225.929 20.0098 6028.83 -9.54608e-07
-0.184792 0.00508104 0.01388 900 225.929 20.0098 6028.83 -9.02877e-07
-0.186448 0.00512656 0.01388 900 225.929 20.0098 6028.83 -8.51645e-07
-0.188116 0.00517243 0.01388 900 225.929 20.0098 6028.83 -8.01014e-07
-0.189797 0.00521866 0.01388 900 225.929 20.0098 6028.83 -7.51088e-07
-0.191491 0.00526525 0.01388 900 225.929 20.0098 6028.83 -7.01978e-07
-0.193199 0.00531219 0.01388 900 225.929 20.0098 6028.83 -6.53793e-07
-0.194919 0.0053595 0.01388 900 225.929 20.0098 6028.83 -6.06645e-07
-0.196653 0.00540717 0.01388 900 225.929 20.0098 6028.83 -5.60647e-07
-0.1984 0.00545522 0.01388 900 225.929 20.0098 6028.83 -5.15912e-07
-0.200161 0.00550363 0.01388 900 225.929 20.0098 6028.83 -4.72552e-07
-0.201935 0.00555242 0.01388 900 225.929 20.0098 6028.83 -4.30678e-07
-0.203723 0.00560158 0.01388 900 225.929 20.0098 6028.83 -3.90395e-07
-0.205525 0.00565113 0.01388 900 225.929 20.0098 6028.83 -3.51811e-07
-0.207341 0.00570106 0.01388 900 225.929 20.0098 6028.83 -3.15021e-07
-0.209171 0.00575137 0.01388 900 225.929 20.0098 6028.83 -2.80119e-07
-0.211015 0.00580208 0.01388 900 225.929 20.0098 6028.83 -2.47184e-07
-0.212873 0.00585317 0.01388 900 225.929 20.0098 6028.83 -2.16296e-07
-0.214746 0.00590466 0.01388 900 225.929 20.0098 6028.83 -1.87519e-07
-0.216633 0.00595655 0.01388 900 225.929 20.0098 6028.83 -1.60903e-07
-0.218535 0.00600884 0.01388 900 225.929 20.0098 6028.83 -1.36486e-07
-0.220451 0.00606154 0.01388 900 225.929 20.0098 6028.83 -1.1429e-07
-0.222382 0.00611464 0.01388 900 225.929 20.0098 6028.83 -9.43183e-08
-0.224328 0.00616815 0.01388 900 225.929 20.0098 6028.83 -7.6555e-08
-0.22629 0.00622208 0.01388 900 225.929 20.0098 6028.83 -6.0964e-08
-0.228266 0.00627642 0.01388 900 225.929 20.0098 6028.83 -4.74865e-08
-0.230258 0.00633118 0.01388 900 225.929 20.0098 6028.83 -3.60409e-08
-0.232265 0.00638637 0.01388 900 225.929 20.0098 6028.83 -2.6522e-08
-0.234287 0.00644198 0.01388 900 225.929 20.0098 6028.83 -1.88009e-08
-0.236326 0.00649803 0.01388 900 225.929 20.0098 6028.83 -1.27258e-08
-0.238379 0.0065545 0.01388 900 225.929 20.0098 6028.83 -8.1244e-09
-0.240449 0.00661142 0.01388 900 225.929 20.0098 6028.83 -4.80579e-09
-0.242535 0.00666877 0.01388 900 225.929 20.0098 6028.83 -2.55954e-09
-0.244637 0.00672657 0.01388 900 225.929 20.0098 6028.83 -1.16909e-09
-0.246755 0.00678481 0.01388 900 225.929 20.0098 6028.83 -4.15885e-10
-0.24889 0.00684351 0.01388 900 225.929 20.0098 6028.83 -8.87889e-11
-0.100436 0.0035512 0.174845 477251 6827.53 0.0518421 15.3764 91.3904
-0.10144 0.00358667 0.174717 476888 6827.28 0.0555341 39.9289 90.8894
-0.102451 0.00362241 0.174598 476502 6826.69 0.0622362 64.9751 90.3005
-0.10347 0.00365844 0.174463 476011 6825.63 0.0713693 90.236 90.1568
-0.104496 0.00369474 0.174302 475390 6824.12 0.0821962 115.653 90.5457
-0.105531 0.00373132 0.174107 474625 6822.17 0.0941998 141.285 91.4392
-0.106573 0.00376819 0.17387 473703 6819.86 0.107095 167.25 92.8151
-0.107624 0.00380534 0.173587 472616 6817.2 0.120746 193.694 94.6696
-0.108683 0.00384278 0.173249 471350 6814.22 0.135108 220.778 97.0108
-0.10975 0.0038805 0.17285 469887 6810.93 0.150193 248.676 99.8544
-0.110825 0.00391852 0.172379 468200 6807.33 0.166054 277.581 103.22
-0.111909 0.00395684 0.171822 466243 6803.34 0.182793 307.744 107.129
-0.113001 0.00399545 0.171134 463874 6798.75 0.200666 339.671 111.598
-0.114101 0.00403436 0.170134 460519 6792.67 0.220585 375.051 116.603
-0.11521 0.00407357 0.168012 453614 6781.15 0.246537 421.123 121.95
-0.116328 0.00411308 0.161363 432384 6746.7 0.29654 509.911 126.713
-0.117454 0.0041529 0.138748 361133 6616.03 0.450325 776.432 126.973
-0.118589 0.00419303 0.0704601 157680 5978.99 1.23807 2010.7 98.3029
-0.119733 0.00423346 0.0146997 4325.21 1002.41 9.04529 5690.41 10.8996
-0.120885 0.00427421 0.0138812 900.603 226.06 20.0022 6028.3 0.0177979
-0.122047 0.00431528 0.01388 900 225.929 20.0098 6028.83 -2.48462e-06
-0.123217 0.00435666 0.01388 900 225.929 20.0098 6028.83 -2.45403e-06
-0.124396 0.00439837 0.01388 900 225.929 20.0098 6028.83 -2.41838e-06
-0.125585 0.00444039 0.01388 900 225.929 20.0098 6028.83 -2.38199e-06
-0.126783 0.00448274 0.01388 900 225.929 20.0098 6028.83 -2.34488e-06
-0.12799 0.00452542 0.01388 900 225.929 20.0098 6028.83 -2.30704e-06