TITLE = "Equilibrium Fractions vs Temperature"
VARIABLES = "T", "N2", "O2", "NO", "N", "O", "Ar", "Ar+", "N+", "O+", "e-"
ZONE T="Equilibrium Data", F=POINT
501.863 0.745206 0.22839 5.8275e-10 0 0 0.0264039 1.30371e-60 0 5.12379e-281 0
609.127 0.745206 0.22839 2.7516e-08 0 1.55184e-304 0.0264039 1.9324e-42 0 1.0277e-220 0
713.164 0.745206 0.22839 3.82306e-07 0 7.22719e-215 0.0264039 6.10096e-40 0 3.29537e-178 0
814.129 0.745205 0.228389 2.58444e-06 0 1.27833e-127 0.0264039 2.93516e-37 0 1.53327e-137 0
912.377 0.745201 0.228384 1.10605e-05 0 8.46306e-53 0.0264039 1.04822e-33 0 2.01022e-97 0
1008.29 0.74519 0.228372 3.47989e-05 0 1.33546e-10 0.0264039 1.91521e-30 0 2.96908e-71 0
1102.19 0.745165 0.228343 8.81138e-05 7.68754e-253 1.66816e-09 0.0264039 2.95051e-28 0 3.10268e-51 0
1194.33 0.745117 0.228289 0.000190247 2.79512e-182 1.35002e-08 0.0264039 3.21209e-26 0 3.14295e-37 0
1284.89 0.745036 0.228196 0.000364049 1.29062e-126 7.8642e-08 0.0264039 2.68797e-24 0 2.84558e-27 0
1374.02 0.74491 0.228052 0.000634167 1.60086e-89 3.54761e-07 0.0264039 3.79461e-27 6.22072e-310 3.07288e-22 0
1461.79 0.744727 0.227842 0.00102515 6.24649e-62 1.30602e-06 0.0264039 1.25878e-31 4.42021e-273 1.11182e-20 0
1548.26 0.744478 0.227555 0.00155973 1.63668e-44 4.07807e-06 0.0264039 5.29695e-38 1.2219e-250 5.38511e-20 0
1633.45 0.744152 0.227176 0.00225734 1.90044e-29 1.11187e-05 0.0264039 4.52121e-40 9.00905e-221 8.66229e-19 0
1717.34 0.743743 0.226693 0.00313288 1.92281e-20 2.70625e-05 0.0264039 7.23821e-44 1.67612e-202 9.9515e-18 0
1799.83 0.743247 0.226093 0.00419566 3.89698e-14 5.98142e-05 0.0264039 3.44153e-47 3.10085e-186 1.72916e-17 0
1880.81 0.742663 0.225364 0.00544828 1.18321e-10 0.000121649 0.0264038 1.14057e-48 2.95069e-170 4.62348e-17 0
1960.06 0.741991 0.224489 0.0068858 4.00496e-10 0.000230018 0.0264038 8.64254e-49 6.26502e-155 1.08141e-16 0
2037.31 0.74124 0.223453 0.00849505 1.19937e-09 0.000407645 0.0264038 1.06279e-47 4.95889e-140 3.84784e-16 0
2112.24 0.740419 0.222241 0.0102548 3.21764e-09 0.000681567 0.0264038 1.21485e-45 9.53671e-126 1.53442e-15 6.3058e-302
2184.51 0.73954 0.220838 0.0121366 7.81442e-09 0.00108098 0.0264038 1.47277e-46 1.80493e-119 2.11303e-15 1.15798e-278
2253.81 0.73862 0.219234 0.0141076 1.73401e-08 0.00163425 0.0264038 8.15534e-44 6.00505e-107 7.7679e-15 5.01321e-247
2319.89 0.737675 0.217423 0.0161326 3.54596e-08 0.00236571 0.0264038 2.50766e-44 6.15516e-102 1.03153e-14 1.51764e-228
2382.61 0.73672 0.215405 0.0181781 6.73793e-08 0.0032933 0.0264038 2.66584e-41 4.49464e-91 3.64614e-14 3.93143e-203
2441.93 0.735769 0.213185 0.0202142 1.19917e-07 0.00442734 0.0264038 1.63458e-41 4.66199e-87 4.64125e-14 4.11198e-189
2497.9 0.734834 0.210774 0.0222164 2.01412e-07 0.0057707 0.0264038 3.37978e-38 2.10072e-77 1.57372e-13 2.70458e-169
2550.67 0.733924 0.208186 0.0241659 3.21522e-07 0.00731997 0.0264038 2.69532e-38 3.03285e-74 1.92675e-13 1.45281e-158
2600.42 0.733045 0.205434 0.0260495 4.90973e-07 0.00906702 0.0264038 2.32531e-38 2.28586e-71 2.3196e-13 7.72093e-149
2647.38 0.7322 0.202536 0.0278585 7.21323e-07 0.0110007 0.0264038 6.91222e-35 2.84639e-63 7.47803e-13 1.10951e-134
2691.77 0.731392 0.199507 0.0295879 1.02477e-06 0.013108 0.0264038 7.95883e-35 3.27529e-61 8.75213e-13 3.5186e-127
2733.84 0.730623 0.196361 0.0312355 1.41406e-06 0.0153756 0.0264038 9.41501e-35 2.12592e-59 1.01247e-12 2.68416e-120
2773.8 0.729891 0.193112 0.0328011 1.90235e-06 0.0177901 0.0264038 1.13757e-34 7.80813e-58 1.15928e-12 5.90851e-114
2811.87 0.729198 0.189772 0.0342856 2.5033e-06 0.0203385 0.0264038 4.69032e-31 3.8359e-51 3.57588e-12 1.38499e-104
2848.23 0.728541 0.186352 0.035691 3.23104e-06 0.0230088 0.0264038 5.88956e-31 5.63775e-50 4.02546e-12 1.68453e-99
2883.06 0.72792 0.182863 0.0370197 4.10025e-06 0.0257899 0.0264038 7.46529e-31 7.12687e-49 4.49995e-12 9.39624e-95
2916.51 0.727333 0.179312 0.0382743 5.12625e-06 0.0286717 0.0264038 9.53552e-31 7.89143e-48 4.99935e-12 2.63477e-90
2948.73 0.726779 0.175708 0.0394577 6.32511e-06 0.0316449 0.0264038 1.2472e-30 6.82592e-47 5.52355e-12 3.95073e-86
2979.84 0.726257 0.172057 0.0405726 7.71381e-06 0.0347012 0.0264038 1.77162e-30 5.48053e-46 6.07285e-12 3.19419e-82
3009.95 0.725766 0.168366 0.0416216 9.31029e-06 0.0378329 0.0264038 2.51723e-30 4.04482e-45 6.64772e-12 1.60247e-78
3039.17 0.725304 0.164641 0.0426072 1.11337e-05 0.0410333 0.0264037 3.57742e-30 2.76992e-44 7.24872e-12 5.24806e-75
3067.59 0.72487 0.160885 0.0435319 1.32046e-05 0.044296 0.0264037 5.08545e-30 1.77458e-43 7.87652e-12 1.1726e-71
3095.3 0.724464 0.157104 0.0443977 1.5545e-05 0.0476156 0.0264037 2.48621e-26 5.16225e-38 2.31922e-11 1.29822e-67
3122.36 0.724083 0.153301 0.0452068 1.81786e-05 0.0509867 0.0264037 3.5281e-26 2.62567e-37 2.50516e-11 8.96653e-65
3148.85 0.723728 0.149481 0.045961 2.11312e-05 0.0544048 0.0264037 5.00627e-26 1.27865e-36 2.69917e-11 4.77987e-62
3174.82 0.723398 0.145647 0.0466618 2.44309e-05 0.0578655 0.0264037 7.10508e-26 5.81654e-36 2.90157e-11 2.01574e-59
3200.35 0.723091 0.141802 0.0473109 2.81081e-05 0.0613648 0.0264037 1.00876e-25 2.32531e-35 3.11268e-11 6.87456e-57
3225.47 0.722807 0.137948 0.0479095 3.21963e-05 0.0648991 0.0264037 1.43335e-25 9.04314e-35 3.33297e-11 1.93359e-54
3250.25 0.722546 0.13409 0.0484589 3.67322e-05 0.0684648 0.0264037 2.03898e-25 3.43217e-34 3.5629e-11 4.56521e-52
3274.73 0.722307 0.130228 0.0489601 4.1756e-05 0.0720588 0.0264037 2.9048e-25 1.275e-33 3.80299e-11 9.19299e-50
3298.95 0.72209 0.126367 0.049414 4.73124e-05 0.075678 0.0264037 4.19073e-25 4.69908e-33 4.05381e-11 1.58485e-47
3322.96 0.721893 0.122509 0.0498214 5.34505e-05 0.0793195 0.0264037 6.38218e-25 1.795e-32 4.31598e-11 2.27459e-45
3346.79 0.721718 0.118655 0.0501829 6.0225e-05 0.0829806 0.0264037 9.73445e-25 6.75625e-32 4.59019e-11 2.90049e-43
3370.48 0.721562 0.114809 0.0504992 6.76967e-05 0.0866585 0.0264037 1.4878e-24 2.51184e-31 4.87723e-11 3.32265e-41
3394.08 0.721427 0.110972 0.0507705 7.59333e-05 0.0903506 0.0264037 2.27981e-24 9.24529e-31 5.17793e-11 3.4543e-39
3417.62 0.721312 0.107147 0.0509973 8.50105e-05 0.0940545 0.0264037 3.50438e-24 3.37643e-30 5.49323e-11 3.29017e-37
3441.13 0.721217 0.103337 0.0511797 9.50133e-05 0.0977677 0.0264037 5.40659e-24 1.22613e-29 5.82417e-11 2.89674e-35
3464.66 0.721142 0.0995432 0.051318 0.000106037 0.101488 0.0264037 8.37692e-24 4.43676e-29 6.17191e-11 2.37712e-33
3488.23 0.721085 0.095769 0.0514121 0.000118189 0.105212 0.0264037 4.32776e-27 1.67227e-32 2.40509e-11 2.06747e-29
3511.89 0.721049 0.0920168 0.051462 0.000131592 0.108937 0.0264037 6.87101e-27 5.91863e-32 2.54675e-11 2.1342e-27
3535.67 0.721031 0.088289 0.0514676 0.000146382 0.112662 0.0264037 1.09836e-26 2.0986e-31 2.69614e-11 2.0924e-25
3559.61 0.721033 0.0845887 0.0514286 0.000162717 0.116383 0.0264037 1.769e-26 7.46927e-31 2.85389e-11 1.96287e-23
3583.74 0.721054 0.0809185 0.0513448 0.000180774 0.120098 0.0264037 2.87272e-26 2.67376e-30 3.02073e-11 1.77461e-21
3608.11 0.721094 0.0772817 0.0512158 0.000200758 0.123804 0.0264037 4.70725e-26 9.64546e-30 3.19747e-11 1.55701e-19
3632.77 0.721153 0.0736814 0.0510411 0.000222902 0.127497 0.0264037 7.78959e-26 3.51371e-29 3.38514e-11 1.33472e-17
3657.74 0.721232 0.0701211 0.0508204 0.000247474 0.131175 0.0264037 1.30569e-25 1.298e-28 3.59251e-11 1.12291e-15
3683.08 0.721329 0.0666046 0.0505531 0.000274784 0.134835 0.0264037 2.55081e-31 7.07291e-35 2.70914e-09 9.28929e-14
3708.84 0.721446 0.0631355 0.0502386 0.000305189 0.138471 0.0264037 2.25489e-26 4.5543e-29 3.19806e-09 1.09657e-13
3735.06 0.721581 0.0597183 0.0498764 0.000339103 0.142082 0.0264037 6.88845e-27 2.5207e-29 3.77597e-09 1.29473e-13
3761.8 0.721734 0.0563573 0.049466 0.000377006 0.145662 0.0264037 5.74763e-24 7.08623e-26 4.46031e-09 1.52938e-13
3789.1 0.721906 0.0530574 0.0490069 0.000419459 0.149206 0.0264037 8.53535e-22 2.9332e-23 5.27227e-09 1.80779e-13
3817.03 0.722096 0.0498237 0.0484985 0.000467111 0.152711 0.0264037 1.43216e-20 1.03818e-21 6.23777e-09 2.13885e-13
3845.65 0.722303 0.0466617 0.0479406 0.000520725 0.156171 0.0264037 1.20824e-18 1.94495e-19 7.38853e-09 2.53343e-13
3875.01 0.722526 0.0435771 0.047333 0.000581189 0.159579 0.0264037 1.26324e-17 4.00754e-18 8.76354e-09 3.0049e-13
3905.18 0.722764 0.0405762 0.0466757 0.000649544 0.162931 0.0264037 6.13092e-17 4.13072e-17 1.04108e-08 3.56972e-13
3936.22 0.723016 0.0376653 0.0459691 0.000727002 0.166219 0.0264037 3.38172e-15 3.81124e-15 1.23894e-08 4.24815e-13
3968.19 0.723281 0.0348512 0.0452139 0.00081498 0.169435 0.0264037 8.26996e-14 1.16851e-13 1.47725e-08 5.06519e-13
4001.15 0.723555 0.0321409 0.0444112 0.000915124 0.172574 0.0264037 2.79484e-13 6.08857e-13 1.765e-08 6.05181e-13
4035.14 0.723837 0.0295412 0.0435628 0.00102934 0.175626 0.0264037 8.07093e-13 2.72687e-12 2.11323e-08 7.24633e-13
4070.23 0.724123 0.027059 0.042671 0.00115983 0.178583 0.0264037 2.37173e-12 1.2502e-11 2.5352e-08 8.69687e-13
4106.43 0.724409 0.0247011 0.0417391 0.00130911 0.181438 0.0264037 6.65477e-12 4.55516e-11 3.04663e-08 1.04643e-12
4143.78 0.72469 0.0224733 0.040771 0.00147999 0.184182 0.0264037 3.47256e-11 1.08486e-10 3.66728e-08 1.26206e-12
4182.25 0.72496 0.020381 0.0397717 0.00167565 0.186808 0.0264037 8.11772e-11 1.49684e-10 4.42462e-08 1.52402e-12
4221.84 0.725215 0.0184284 0.038747 0.00189954 0.189307 0.0264037 1.81807e-10 2.07278e-10 5.34521e-08 1.84339e-12
4262.49 0.725446 0.0166181 0.0377034 0.0021554 0.191673 0.0264037 3.00847e-10 2.87915e-10 6.46428e-08 2.23193e-12
4304.12 0.725647 0.0149513 0.0366484 0.00244713 0.193903 0.0264037 3.8132e-10 4.00804e-10 7.82281e-08 2.70327e-12
4346.61 0.725809 0.0134272 0.0355897 0.00277872 0.195991 0.0264037 4.8367e-10 5.58411e-10 9.46504e-08 3.27395e-12
4389.82 0.725926 0.012043 0.0345353 0.0031541 0.197938 0.0264037 6.13355e-10 7.776e-10 1.14417e-07 3.96209e-12
4433.6 0.72599 0.0107941 0.033493 0.003577 0.199742 0.0264037 7.76842e-10 1.08075e-09 1.38082e-07 4.78764e-12
4477.75 0.725994 0.00967392 0.0324702 0.0040508 0.201408 0.0264037 9.8165e-10 1.49702e-09 1.66235e-07 5.77211e-12
4522.08 0.725931 0.00867469 0.0314736 0.00457839 0.202938 0.0264037 1.23634e-09 2.06371e-09 1.99493e-07 6.93815e-12
4566.41 0.725798 0.00778745 0.0305086 0.00516205 0.20434 0.0264037 1.55046e-09 2.8276e-09 2.38477e-07 8.30909e-12
4610.55 0.72559 0.00700256 0.0295798 0.00580343 0.20562 0.0264037 1.93445e-09 3.84616e-09 2.83802e-07 9.90842e-12
4654.31 0.725305 0.00631017 0.0286902 0.00650344 0.206787 0.0264037 2.39948e-09 5.18862e-09 3.36062e-07 1.17593e-11
4697.56 0.724942 0.00570053 0.0278421 0.00726236 0.207849 0.0264037 2.9573e-09 6.93674e-09 3.95811e-07 1.38841e-11
4740.15 0.724501 0.00516427 0.0270363 0.00807981 0.208814 0.0264037 3.62002e-09 9.18537e-09 4.63556e-07 1.63042e-11
4781.99 0.723982 0.00469265 0.026273 0.00895491 0.209693 0.0264037 4.39999e-09 1.20426e-08 5.39751e-07 1.90395e-11
4822.98 0.723388 0.00427765 0.0255515 0.00988628 0.210493 0.0264037 5.30955e-09 1.56297e-08 6.24789e-07 2.21083e-11
4863.07 0.72272 0.00391204 0.0248705 0.0108722 0.211221 0.0264037 6.36091e-09 2.00808e-08 7.19003e-07 2.55275e-11
4902.21 0.721981 0.0035894 0.0242285 0.0119108 0.211886 0.0264037 7.56605e-09 2.55421e-08 8.22666e-07 2.93125e-11
4940.39 0.721174 0.00330409 0.0236236 0.0129998 0.212494 0.0264037 8.93656e-09 3.21717e-08 9.35995e-07 3.34769e-11
4977.59 0.720303 0.00305118 0.0230537 0.014137 0.21305 0.0264037 1.04836e-08 4.01381e-08 1.05915e-06 3.80331e-11
5013.81 0.719371 0.0028264 0.0225166 0.01532 0.213561 0.0264037 1.22179e-08 4.96196e-08 1.19226e-06 4.29923e-11
5049.06 0.71838 0.00262604 0.0220103 0.0165466 0.214032 0.0264037 1.41494e-08 6.08033e-08 1.33539e-06 4.83645e-11
5083.37 0.717335 0.00244694 0.0215327 0.0178145 0.214465 0.0264037 1.62879e-08 7.38843e-08 1.48857e-06 5.41586e-11
5116.76 0.716239 0.00228636 0.0210817 0.0191215 0.214866 0.0264037 1.86423e-08 8.90646e-08 1.65181e-06 6.03829e-11
5149.25 0.715094 0.00214195 0.0206554 0.0204654 0.215238 0.0264037 2.12212e-08 1.06552e-07 1.82509e-06 6.70449e-11
5180.87 0.713903 0.00201171 0.0202521 0.0218442 0.215583 0.0264037 2.40325e-08 1.26561e-07 2.00836e-06 7.41512e-11
5211.66 0.71267 0.00189388 0.0198701 0.023256 0.215904 0.0264037 2.70836e-08 1.49308e-07 2.20156e-06 8.17084e-11
5241.65 0.711396 0.00178698 0.0195079 0.024699 0.216204 0.0264036 3.03815e-08 1.75015e-07 2.40459e-06 8.97223e-11
5270.86 0.710084 0.00168973 0.0191639 0.0261713 0.216484 0.0264036 3.39327e-08 2.03908e-07 2.61736e-06 9.81984e-11
5299.34 0.708737 0.001601 0.0188369 0.0276715 0.216747 0.0264036 3.77433e-08 2.36214e-07 2.83977e-06 1.07142e-10
5327.11 0.707355 0.00151984 0.0185257 0.0291979 0.216994 0.0264036 4.1819e-08 2.72161e-07 3.07171e-06 1.16559e-10
5354.2 0.705943 0.00144542 0.0182291 0.0307491 0.217226 0.0264036 4.61649e-08 3.11983e-07 3.31304e-06 1.26453e-10
5380.65 0.7045 0.00137699 0.0179461 0.0323239 0.217445 0.0264036 5.07861e-08 3.55911e-07 3.56364e-06 1.3683e-10
5406.48 0.703029 0.00131393 0.0176758 0.0339209 0.217652 0.0264036 5.56872e-08 4.04178e-07 3.82338e-06 1.47694e-10
5431.72 0.701532 0.00125569 0.0174173 0.0355391 0.217848 0.0264036 6.08724e-08 4.57019e-07 4.09214e-06 1.5905e-10
5456.39 0.700009 0.00120177 0.0171698 0.0371772 0.218034 0.0264036 6.63459e-08 5.14667e-07 4.36977e-06 1.70903e-10
5480.53 0.698462 0.00115176 0.0169325 0.0388343 0.21821 0.0264036 7.21114e-08 5.77359e-07 4.65614e-06 1.83257e-10
5504.15 0.696894 0.00110527 0.0167048 0.0405094 0.218378 0.0264036 7.81723e-08 6.45327e-07 4.95113e-06 1.96117e-10
5527.27 0.695303 0.00106197 0.0164861 0.0422017 0.218537 0.0264036 8.45322e-08 7.18806e-07 5.25459e-06 2.09488e-10
5549.92 0.693693 0.00102157 0.0162759 0.0439103 0.218689 0.0264036 9.11941e-08 7.98029e-07 5.56641e-06 2.23374e-10
5572.13 0.692063 0.00098381 0.0160735 0.0456344 0.218835 0.0264036 9.8161e-08 8.83231e-07 5.88644e-06 2.3778e-10
5593.89 0.690415 0.00094845 0.0158785 0.0473733 0.218974 0.0264036 1.05436e-07 9.74643e-07 6.21456e-06 2.52711e-10
5615.25 0.68875 0.000915286 0.0156905 0.0491263 0.219107 0.0264036 1.13021e-07 1.0725e-06 6.55065e-06 2.68172e-10
5636.21 0.687068 0.000884132 0.015509 0.0508928 0.219234 0.0264036 1.20919e-07 1.17702e-06 6.89459e-06 2.84168e-10
5656.78 0.68537 0.000854822 0.0153338 0.0526721 0.219357 0.0264036 1.29133e-07 1.28846e-06 7.24626e-06 3.00703e-10
5677 0.683658 0.000827206 0.0151643 0.0544638 0.219474 0.0264035 1.37664e-07 1.40702e-06 7.60555e-06 3.17784e-10
5696.86 0.681931 0.00080115 0.0150003 0.0562672 0.219588 0.0264035 1.46515e-07 1.53295e-06 7.97233e-06 3.35414e-10
5716.38 0.68019 0.000776534 0.0148416 0.0580818 0.219696 0.0264035 1.55688e-07 1.66646e-06 8.34651e-06 3.53599e-10
5735.59 0.678436 0.000753247 0.0146877 0.0599072 0.219801 0.0264035 1.65185e-07 1.80779e-06 8.72798e-06 3.72345e-10
5754.48 0.67667 0.00073119 0.0145385 0.061743 0.219903 0.0264035 1.75009e-07 1.95717e-06 9.11663e-06 3.91657e-10
5773.07 0.674892 0.000710273 0.0143938 0.0635887 0.22 0.0264035 1.8516e-07 2.11481e-06 9.51236e-06 4.1154e-10
5791.38 0.673102 0.000690415 0.0142532 0.0654438 0.220095 0.0264035 1.95641e-07 2.28094e-06 9.91509e-06 4.32e-10
5809.4 0.671301 0.000671541 0.0141166 0.0673082 0.220186 0.0264035 2.06453e-07 2.4558e-06 1.03247e-05 4.53042e-10
5827.17 0.66949 0.000653582 0.0139837 0.0691813 0.220274 0.0264035 2.17599e-07 2.63958e-06 1.07411e-05 4.74673e-10
5844.67 0.667669 0.000636478 0.0138545 0.0710629 0.22036 0.0264035 2.29081e-07 2.83253e-06 1.11643e-05 4.96897e-10
5861.93 0.665837 0.000620171 0.0137287 0.0729526 0.220443 0.0264034 2.40898e-07 3.03486e-06 1.15941e-05 5.19721e-10
5878.95 0.663997 0.000604609 0.0136061 0.0748501 0.220523 0.0264034 2.53055e-07 3.2468e-06 1.20304e-05 5.43151e-10
5895.73 0.662147 0.000589744 0.0134867 0.0767552 0.220602 0.0264034 2.65552e-07 3.46856e-06 1.24733e-05 5.67192e-10
5912.3 0.660289 0.000575533 0.0133702 0.0786676 0.220677 0.0264034 2.78391e-07 3.70036e-06 1.29225e-05 5.91851e-10
5928.65 0.658422 0.000561935 0.0132565 0.0805869 0.220751 0.0264034 2.91573e-07 3.94242e-06 1.33781e-05 6.17134e-10
5944.79 0.656548 0.000548913 0.0131456 0.0825131 0.220823 0.0264034 3.051e-07 4.19496e-06 1.38399e-05 6.43047e-10
5960.74 0.654666 0.000536431 0.0130373 0.0844457 0.220893 0.0264034 3.18974e-07 4.4582e-06 1.4308e-05 6.69597e-10
5976.48 0.652776 0.00052446 0.0129314 0.0863847 0.220961 0.0264034 3.33197e-07 4.73236e-06 1.47822e-05 6.9679e-10
5992.05 0.650879 0.000512968 0.0128279 0.0883298 0.221027 0.0264033 3.4777e-07 5.01765e-06 1.52624e-05 7.24632e-10
6007.42 0.648975 0.00050193 0.0127267 0.0902807 0.221091 0.0264033 3.62695e-07 5.31429e-06 1.57487e-05 7.5313e-10
6022.63 0.647064 0.000491318 0.0126277 0.0922374 0.221154 0.0264033 3.77974e-07 5.6225e-06 1.6241e-05 7.82291e-10
6037.66 0.645147 0.00048111 0.0125307 0.0941996 0.221216 0.0264033 3.93607e-07 5.9425e-06 1.67392e-05 8.12121e-10
6052.53 0.643223 0.000471285 0.0124358 0.0961671 0.221275 0.0264033 4.09598e-07 6.2745e-06 1.72433e-05 8.42628e-10
6067.23 0.641293 0.000461821 0.0123428 0.0981398 0.221334 0.0264033 4.25947e-07 6.61872e-06 1.77531e-05 8.73817e-10
6081.79 0.639358 0.0004527 0.0122517 0.100117 0.221391 0.0264032 4.42657e-07 6.97538e-06 1.82688e-05 9.05697e-10
6096.19 0.637417 0.000443903 0.0121624 0.1021 0.221447 0.0264032 4.59728e-07 7.34469e-06 1.87902e-05 9.38274e-10
6110.44 0.63547 0.000435415 0.0120747 0.104087 0.221502 0.0264032 4.77164e-07 7.72687e-06 1.93173e-05 9.71556e-10
6124.56 0.633518 0.000427219 0.0119888 0.106079 0.221555 0.0264032 4.94966e-07 8.12214e-06 1.985e-05 1.00555e-09
6138.53 0.631561 0.000419302 0.0119044 0.108075 0.221608 0.0264032 5.13135e-07 8.53072e-06 2.03884e-05 1.04026e-09
6152.37 0.629598 0.00041165 0.0118215 0.110076 0.221659 0.0264032 5.31674e-07 8.95283e-06 2.09324e-05 1.0757e-09
6166.09 0.627631 0.00040425 0.0117402 0.112081 0.221709 0.0264031 5.50584e-07 9.38868e-06 2.14819e-05 1.11187e-09
6179.67 0.625659 0.00039709 0.0116603 0.114089 0.221758 0.0264031 5.69868e-07 9.83849e-06 2.20369e-05 1.14879e-09
6193.14 0.623683 0.000390158 0.0115817 0.116102 0.221807 0.0264031 5.89527e-07 1.03025e-05 2.25975e-05 1.18645e-09
6206.48 0.621702 0.000383445 0.0115045 0.118119 0.221854 0.0264031 6.09564e-07 1.07809e-05 2.31635e-05 1.22487e-09
6219.71 0.619717 0.000376941 0.0114285 0.120139 0.2219 0.0264031 6.29981e-07 1.12739e-05 2.3735e-05 1.26406e-09
6232.83 0.617727 0.000370635 0.0113539 0.122163 0.221946 0.026403 6.50779e-07 1.17818e-05 2.43119e-05 1.30402e-09
6245.83 0.615733 0.00036452 0.0112804 0.12419 0.221991 0.026403 6.71961e-07 1.23047e-05 2.48942e-05 1.34476e-09
6258.73 0.613736 0.000358586 0.011208 0.126221 0.222035 0.026403 6.93529e-07 1.2843e-05 2.5482e-05 1.38629e-09
6271.53 0.611734 0.000352826 0.0111368 0.128255 0.222078 0.026403 7.15485e-07 1.33967e-05 2.60751e-05 1.42862e-09
6284.22 0.609729 0.000347233 0.0110667 0.130292 0.22212 0.026403 7.37832e-07 1.39662e-05 2.66735e-05 1.47175e-09
6296.82 0.60772 0.0003418 0.0109977 0.132333 0.222162 0.0264029 7.60572e-07 1.45517e-05 2.72774e-05 1.5157e-09
6309.32 0.605708 0.00033652 0.0109296 0.134376 0.222203 0.0264029 7.83707e-07 1.51533e-05 2.78865e-05 1.56047e-09
6321.73 0.603692 0.000331386 0.0108626 0.136423 0.222243 0.0264029 8.07239e-07 1.57714e-05 2.8501e-05 1.60607e-09
6334.04 0.601673 0.000326393 0.0107965 0.138472 0.222283 0.0264029 8.31172e-07 1.64061e-05 2.91208e-05 1.65251e-09
6346.27 0.59965 0.000321536 0.0107313 0.140525 0.222322 0.0264028 8.55508e-07 1.70577e-05 2.97459e-05 1.6998e-09
6358.41 0.597625 0.000316808 0.0106671 0.14258 0.22236 0.0264028 8.80248e-07 1.77265e-05 3.03764e-05 1.74795e-09
6370.46 0.595596 0.000312204 0.0106037 0.144638 0.222398 0.0264028 9.05397e-07 1.84126e-05 3.10121e-05 1.79696e-09
6382.44 0.593564 0.000307721 0.0105411 0.146698 0.222435 0.0264028 9.30956e-07 1.91162e-05 3.16532e-05 1.84686e-09
6394.33 0.591529 0.000303353 0.0104794 0.148761 0.222471 0.0264027 9.56929e-07 1.98377e-05 3.22995e-05 1.89763e-09
6406.15 0.589491 0.000299096 0.0104185 0.150826 0.222508 0.0264027 9.83318e-07 2.05773e-05 3.29512e-05 1.94931e-09
6417.89 0.587451 0.000294946 0.0103584 0.152894 0.222543 0.0264027 1.01013e-06 2.13351e-05 3.36082e-05 2.00189e-09
6429.55 0.585408 0.000290898 0.010299 0.154964 0.222578 0.0264027 1.03735e-06 2.21115e-05 3.42704e-05 2.05538e-09
6441.14 0.583362 0.00028695 0.0102404 0.157037 0.222613 0.0264026 1.06501e-06 2.29067e-05 3.4938e-05 2.10979e-09
6452.66 0.581313 0.000283097 0.0101824 0.159112 0.222647 0.0264026 1.09309e-06 2.37209e-05 3.5611e-05 2.16514e-09
6464.11 0.579262 0.000279337 0.0101252 0.161189 0.22268 0.0264026 1.1216e-06 2.45543e-05 3.62892e-05 2.22143e-09
6475.5 0.577208 0.000275665 0.0100687 0.163268 0.222714 0.0264025 1.15055e-06 2.54073e-05 3.69728e-05 2.27868e-09
6486.82 0.575152 0.000272079 0.0100128 0.165349 0.222746 0.0264025 1.17994e-06 2.62801e-05 3.76617e-05 2.33689e-09
6498.07 0.573094 0.000268576 0.0099575 0.167432 0.222779 0.0264025 1.20976e-06 2.71729e-05 3.8356e-05 2.39608e-09
6509.26 0.571033 0.000265153 0.00990286 0.169518 0.22281 0.0264025 1.24003e-06 2.8086e-05 3.90557e-05 2.45625e-09
6520.39 0.56897 0.000261807 0.00984883 0.171605 0.222842 0.0264024 1.27074e-06 2.90196e-05 3.97608e-05 2.51741e-09
6531.46 0.566905 0.000258536 0.00979539 0.173694 0.222873 0.0264024 1.30191e-06 2.9974e-05 4.04713e-05 2.57958e-09
6542.47 0.564838 0.000255337 0.00974252 0.175785 0.222904 0.0264024 1.33353e-06 3.09495e-05 4.11872e-05 2.64277e-09
6553.42 0.562768 0.000252207 0.00969022 0.177878 0.222934 0.0264023 1.36561e-06 3.19463e-05 4.19085e-05 2.70698e-09
6564.32 0.560697 0.000249146 0.00963846 0.179972 0.222964 0.0264023 1.39815e-06 3.29647e-05 4.26353e-05 2.77224e-09
6575.16 0.558624 0.00024615 0.00958724 0.182069 0.222993 0.0264023 1.43116e-06 3.4005e-05 4.33675e-05 2.83855e-09
6585.95 0.556548 0.000243217 0.00953653 0.184167 0.223023 0.0264022 1.46463e-06 3.50673e-05 4.41053e-05 2.90591e-09
6596.69 0.554471 0.000240345 0.00948633 0.186266 0.223051 0.0264022 1.49858e-06 3.61521e-05 4.48486e-05 2.97435e-09
6607.38 0.552392 0.000237533 0.00943662 0.188367 0.22308 0.0264022 1.533e-06 3.72596e-05 4.55974e-05 3.04388e-09
6618.01 0.550311 0.000234778 0.0093874 0.19047 0.223108 0.0264021 1.56791e-06 3.839e-05 4.63518e-05 3.1145e-09
6628.6 0.548228 0.000232079 0.00933865 0.192575 0.223136 0.0264021 1.6033e-06 3.95437e-05 4.71118e-05 3.18623e-09
6639.14 0.546144 0.000229434 0.00929035 0.19468 0.223164 0.0264021 1.63918e-06 4.07209e-05 4.78774e-05 3.25908e-09
6649.64 0.544057 0.000226842 0.00924251 0.196788 0.223191 0.026402 1.67555e-06 4.19219e-05 4.86487e-05 3.33307e-09
6660.09 0.54197 0.000224301 0.0091951 0.198897 0.223218 0.026402 1.71242e-06 4.3147e-05 4.94257e-05 3.4082e-09
6670.49 0.53988 0.000221808 0.00914812 0.201007 0.223245 0.0264019 1.74979e-06 4.43965e-05 5.02083e-05 3.48449e-09
6680.85 0.537789 0.000219364 0.00910155 0.203118 0.223271 0.0264019 1.78767e-06 4.56708e-05 5.09967e-05 3.56195e-09
6691.17 0.535697 0.000216967 0.00905539 0.205231 0.223298 0.0264019 1.82606e-06 4.697e-05 5.17909e-05 3.6406e-09
6701.45 0.533602 0.000214614 0.00900963 0.207345 0.223324 0.0264018 1.86497e-06 4.82945e-05 5.25909e-05 3.72044e-09
6711.69 0.531507 0.000212306 0.00896426 0.209461 0.223349 0.0264018 1.90439e-06 4.96447e-05 5.33967e-05 3.80149e-09
6721.88 0.52941 0.00021004 0.00891927 0.211577 0.223375 0.0264018 1.94435e-06 5.10207e-05 5.42084e-05 3.88377e-09
6732.04 0.527311 0.000207815 0.00887465 0.213695 0.2234 0.0264017 1.98483e-06 5.2423e-05 5.50261e-05 3.96728e-09
6742.17 0.525212 0.000205631 0.00883039 0.215814 0.223425 0.0264017 2.02585e-06 5.38519e-05 5.58497e-05 4.05205e-09
6752.25 0.523111 0.000203487 0.00878649 0.217934 0.22345 0.0264016 2.06741e-06 5.53076e-05 5.66792e-05 4.13808e-09
6762.3 0.521008 0.00020138 0.00874294 0.220055 0.223474 0.0264016 2.10951e-06 5.67905e-05 5.75149e-05 4.2254e-09
6772.32 0.518904 0.00019931 0.00869972 0.222178 0.223498 0.0264015 2.15217e-06 5.8301e-05 5.83566e-05 4.31401e-09
6782.3 0.516799 0.000197277 0.00865684 0.224301 0.223522 0.0264015 2.19538e-06 5.98393e-05 5.92044e-05 4.40392e-09
6792.24 0.514693 0.000195278 0.00861428 0.226426 0.223546 0.0264015 2.23915e-06 6.14059e-05 6.00584e-05 4.49516e-09
6802.16 0.512586 0.000193314 0.00857204 0.228551 0.22357 0.0264014 2.2835e-06 6.3001e-05 6.09186e-05 4.58774e-09
6812.04 0.510477 0.000191383 0.00853011 0.230678 0.223593 0.0264014 2.32841e-06 6.4625e-05 6.1785e-05 4.68168e-09
6821.89 0.508368 0.000189485 0.00848848 0.232805 0.223617 0.0264013 2.3739e-06 6.62782e-05 6.26578e-05 4.77698e-09
6831.71 0.506257 0.000187618 0.00844715 0.234934 0.22364 0.0264013 2.41998e-06 6.79611e-05 6.35369e-05 4.87367e-09
6841.5 0.504145 0.000185782 0.00840611 0.237063 0.223662 0.0264012 2.46665e-06 6.96739e-05 6.44225e-05 4.97176e-09
6851.26 0.502032 0.000183976 0.00836536 0.239193 0.223685 0.0264012 2.51392e-06 7.1417e-05 6.53145e-05 5.07126e-09
6861 0.499918 0.000182199 0.00832488 0.241324 0.223708 0.0264011 2.56179e-06 7.31908e-05 6.6213e-05 5.17221e-09
6870.7 0.497803 0.000180451 0.00828468 0.243456 0.22373 0.0264011 2.61027e-06 7.49957e-05 6.7118e-05 5.2746e-09
6880.38 0.495687 0.000178731 0.00824475 0.245589 0.223752 0.026401 2.65937e-06 7.6832e-05 6.80297e-05 5.37846e-09
6890.04 0.49357 0.000177037 0.00820508 0.247723 0.223774 0.026401 2.70909e-06 7.87002e-05 6.89481e-05 5.4838e-09
6899.67 0.491452 0.00017537 0.00816566 0.249857 0.223796 0.0264009 2.75944e-06 8.06006e-05 6.98732e-05 5.59064e-09
6909.27 0.489334 0.000173729 0.0081265 0.251992 0.223817 0.0264009 2.81043e-06 8.25336e-05 7.0805e-05 5.69901e-09
6918.85 0.487214 0.000172113 0.00808758 0.254128 0.223839 0.0264008 2.86206e-06 8.44997e-05 7.17438e-05 5.80891e-09
6928.41 0.485093 0.000170522 0.0080489 0.256264 0.22386 0.0264008 2.91434e-06 8.64991e-05 7.26894e-05 5.92036e-09
6937.94 0.482972 0.000168955 0.00801046 0.258402 0.223881 0.0264007 2.96727e-06 8.85324e-05 7.36421e-05 6.03339e-09
6947.45 0.48085 0.000167411 0.00797225 0.26054 0.223902 0.0264007 3.02087e-06 9.06e-05 7.46017e-05 6.14802e-09
6956.94 0.478727 0.00016589 0.00793427 0.262678 0.223923 0.0264006 3.07515e-06 9.27022e-05 7.55685e-05 6.26425e-09
6966.41 0.476603 0.000164391 0.0078965 0.264817 0.223943 0.0264006 3.1301e-06 9.48395e-05 7.65425e-05 6.38211e-09
6975.86 0.474479 0.000162915 0.00785896 0.266957 0.223964 0.0264005 3.18575e-06 9.70124e-05 7.75236e-05 6.50162e-09
6985.28 0.472354 0.000161459 0.00782163 0.269098 0.223984 0.0264005 3.24209e-06 9.92212e-05 7.85122e-05 6.62281e-09
6994.69 0.470228 0.000160025 0.00778451 0.271238 0.224005 0.0264004 3.29913e-06 0.000101466 7.9508e-05 6.74568e-09
7004.08 0.468101 0.00015861 0.00774759 0.27338 0.224025 0.0264003 3.35688e-06 0.000103749 8.05114e-05 6.87026e-09
7013.45 0.465974 0.000157216 0.00771088 0.275522 0.224045 0.0264003 3.41536e-06 0.000106068 8.15223e-05 6.99657e-09
7022.81 0.463846 0.000155841 0.00767436 0.277665 0.224064 0.0264002 3.47456e-06 0.000108425 8.25407e-05 7.12464e-09
7032.14 0.461718 0.000154485 0.00763803 0.279808 0.224084 0.0264002 3.5345e-06 0.000110821 8.35669e-05 7.25448e-09
7041.46 0.459588 0.000153148 0.00760189 0.281951 0.224104 0.0264001 3.59519e-06 0.000113255 8.46008e-05 7.38611e-09
7050.77 0.457459 0.000151829 0.00756594 0.284095 0.224123 0.0264 3.65663e-06 0.000115729 8.56426e-05 7.51956e-09
7060.06 0.455328 0.000150528 0.00753017 0.28624 0.224142 0.0264 3.71884e-06 0.000118242 8.66923e-05 7.65485e-09
7069.33 0.453198 0.000149244 0.00749458 0.288385 0.224162 0.0263999 3.78182e-06 0.000120796 8.775e-05 7.792e-09
7078.59 0.451066 0.000147977 0.00745916 0.29053 0.224181 0.0263999 3.84559e-06 0.000123391 8.88158e-05 7.93104e-09
7087.84 0.448934 0.000146727 0.00742392 0.292676 0.2242 0.0263998 3.91014e-06 0.000126026 8.98898e-05 8.07198e-09
7097.07 0.446802 0.000145493 0.00738884 0.294822 0.224219 0.0263997 3.9755e-06 0.000128704 9.0972e-05 8.21486e-09
7106.29 0.444669 0.000144276 0.00735393 0.296968 0.224237 0.0263997 4.04168e-06 0.000131424 9.20626e-05 8.35969e-09
7115.5 0.442536 0.000143073 0.00731918 0.299115 0.224256 0.0263996 4.10867e-06 0.000134187 9.31616e-05 8.50651e-09
7124.69 0.440402 0.000141887 0.00728459 0.301262 0.224274 0.0263995 4.1765e-06 0.000136993 9.42692e-05 8.65533e-09
7133.87 0.438268 0.000140715 0.00725015 0.303409 0.224293 0.0263995 4.24518e-06 0.000139843 9.53854e-05 8.80619e-09
7143.05 0.436133 0.000139558 0.00721586 0.305557 0.224311 0.0263994 4.31471e-06 0.000142738 9.65104e-05 8.9591e-09
7152.21 0.433999 0.000138415 0.00718173 0.307705 0.224329 0.0263993 4.3851e-06 0.000145678 9.76442e-05 9.11409e-09
7161.36 0.431863 0.000137286 0.00714774 0.309853 0.224347 0.0263992 4.45638e-06 0.000148664 9.87869e-05 9.2712e-09
7170.51 0.429728 0.000136171 0.00711389 0.312002 0.224365 0.0263992 4.52854e-06 0.000151696 9.99387e-05 9.43045e-09
7179.64 0.427592 0.00013507 0.00708019 0.31415 0.224383 0.0263991 4.6016e-06 0.000154775 0.0001011 9.59186e-09
7188.76 0.425455 0.000133982 0.00704662 0.316299 0.224401 0.026399 4.67558e-06 0.000157902 0.00010227 9.75546e-09
7197.88 0.423319 0.000132907 0.00701319 0.318448 0.224419 0.0263989 4.75048e-06 0.000161077 0.000103449 9.92129e-09
7206.99 0.421182 0.000131844 0.00697989 0.320597 0.224437 0.0263989 4.82632e-06 0.000164301 0.000104638 1.00894e-08
7216.09 0.419045 0.000130794 0.00694673 0.322747 0.224454 0.0263988 4.9031e-06 0.000167574 0.000105837 1.02597e-08
7225.19 0.416907 0.000129757 0.00691369 0.324896 0.224472 0.0263987 4.98085e-06 0.000170898 0.000107045 1.04324e-08
7234.28 0.41477 0.000128731 0.00688077 0.327046 0.224489 0.0263986 5.05958e-06 0.000174272 0.000108263 1.06074e-08
7243.36 0.412632 0.000127717 0.00684798 0.329195 0.224506 0.0263986 5.13929e-06 0.000177698 0.000109491 1.07848e-08
7252.44 0.410494 0.000126715 0.00681531 0.331345 0.224523 0.0263985 5.22001e-06 0.000181176 0.000110729 1.09646e-08
7261.52 0.408356 0.000125724 0.00678276 0.333495 0.22454 0.0263984 5.30175e-06 0.000184707 0.000111978 1.11468e-08
7270.59 0.406217 0.000124744 0.00675032 0.335645 0.224557 0.0263983 5.38451e-06 0.000188292 0.000113236 1.13315e-08