TITLE = "Equilibrium Fractions vs Temperature"
VARIABLES = "T", "N2", "O2", "NO", "N", "O", "Ar", "Ar+", "N+", "O+", "e-"
ZONE T="Equilibrium Data", F=POINT
501.863 0.773299 0.207487 5.64524e-10 0 0 0.0192136 9.487e-61 0 9.30977e-281 0
609.127 0.773299 0.207487 2.66554e-08 0 2.81955e-304 0.0192136 1.4062e-42 0 1.86731e-220 0
713.164 0.773299 0.207487 3.70349e-07 0 1.31312e-214 0.0192136 4.43962e-40 0 5.98759e-178 0
814.129 0.773298 0.207486 2.50361e-06 0 2.32262e-127 0.0192136 2.13589e-37 0 2.78592e-137 0
912.377 0.773294 0.207482 1.07146e-05 0 1.53766e-52 0.0192136 7.62782e-34 0 3.65252e-97 0
1008.29 0.773282 0.207471 3.37105e-05 0 2.4264e-10 0.0192136 1.39368e-30 0 5.39473e-71 0
1102.19 0.773256 0.207445 8.53579e-05 1.59547e-252 3.0309e-09 0.0192136 2.14707e-28 0 5.63749e-51 0
1194.33 0.773207 0.207395 0.000184297 5.80099e-182 2.45286e-08 0.0192136 2.33741e-26 0 5.71065e-37 0
1284.89 0.773123 0.207311 0.000352663 2.67855e-126 1.42885e-07 0.0192136 1.95602e-24 0 5.17033e-27 0
1374.02 0.772992 0.20718 0.000614333 3.32243e-89 6.44569e-07 0.0192136 2.76131e-27 1.2911e-309 5.58333e-22 0
1461.79 0.772802 0.206989 0.000993089 1.29639e-61 2.37291e-06 0.0192136 9.16006e-32 9.17405e-273 2.02014e-20 0
1548.26 0.772541 0.206727 0.00151094 3.39674e-44 7.40947e-06 0.0192136 3.85454e-38 2.53602e-250 9.78456e-20 0
1633.45 0.772198 0.206382 0.00218672 3.94412e-29 2.02016e-05 0.0192134 3.29002e-40 1.86979e-220 1.5739e-18 0
1717.34 0.771763 0.20594 0.00303483 3.99049e-20 4.91689e-05 0.0192132 5.26706e-44 3.47868e-202 1.80812e-17 0
1799.83 0.771225 0.20539 0.00406421 8.08735e-14 0.000108671 0.0192126 2.50424e-47 6.43541e-186 3.14167e-17 0
1880.81 0.770575 0.204715 0.0052773 2.45537e-10 0.000221002 0.0192115 8.2989e-49 6.12341e-170 8.3998e-17 0
1960.06 0.769803 0.203901 0.00666904 8.31014e-10 0.000417835 0.0192096 6.2878e-49 1.30002e-154 1.96449e-16 0
2037.31 0.7689 0.202927 0.00822631 2.48824e-09 0.00074038 0.0192065 7.73096e-48 1.02883e-139 6.98884e-16 0
2112.24 0.767857 0.201776 0.00992789 6.67375e-09 0.00123758 0.0192017 8.83489e-46 1.9781e-125 2.78628e-15 3.3394e-297
2184.51 0.766668 0.20043 0.0117455 1.62021e-08 0.00196212 0.0191948 1.07067e-46 3.74242e-119 3.83556e-15 6.13017e-274
2253.81 0.76533 0.198874 0.0136461 3.59342e-08 0.00296488 0.0191851 5.92579e-44 1.24449e-106 1.40931e-14 2.65259e-242
2319.89 0.763843 0.197101 0.0155946 7.3435e-08 0.00428907 0.0191724 1.82089e-44 1.27475e-101 1.87024e-14 8.02481e-224
2382.61 0.762214 0.195107 0.0175571 1.39422e-07 0.00596579 0.0191563 1.93413e-41 9.30072e-91 6.60518e-14 2.07707e-198
2441.93 0.760449 0.192898 0.0195036 2.47879e-07 0.00801186 0.0191367 1.18471e-41 9.63712e-87 8.39924e-14 2.17023e-184
2497.9 0.758561 0.190485 0.0214094 4.15831e-07 0.0104302 0.0191134 2.44662e-38 4.33726e-77 2.8445e-13 1.4257e-164
2550.67 0.756562 0.187883 0.0232555 6.62879e-07 0.0132119 0.0190867 1.94841e-38 6.25305e-74 3.47773e-13 7.64764e-154
2600.42 0.754466 0.185108 0.0250287 1.01064e-06 0.0163394 0.0190566 1.67829e-38 4.7055e-71 4.18023e-13 4.05793e-144
2647.38 0.752286 0.182179 0.0267202 1.48222e-06 0.0197895 0.0190235 4.98021e-35 5.84917e-63 1.34529e-12 5.82119e-130
2691.77 0.750034 0.179115 0.0283253 2.10179e-06 0.0235359 0.0189875 5.72344e-35 6.7178e-61 1.57153e-12 1.84258e-122
2733.84 0.747723 0.175932 0.0298418 2.8943e-06 0.0275514 0.0189489 6.75686e-35 4.35153e-59 1.81428e-12 1.40275e-115
2773.8 0.745362 0.172648 0.0312698 3.88535e-06 0.0318089 0.018908 8.14637e-35 1.59479e-57 2.07288e-12 3.08115e-109
2811.87 0.74296 0.169276 0.0326108 5.1011e-06 0.0362828 0.018865 3.35119e-31 7.81689e-51 6.37941e-12 7.20596e-100
2848.23 0.740527 0.165831 0.0338668 6.5684e-06 0.040949 0.0188202 4.19804e-31 1.14614e-49 7.16439e-12 8.74365e-95
2883.06 0.738068 0.162324 0.0350409 8.31483e-06 0.0457852 0.0187737 5.30807e-31 1.4453e-48 7.9891e-12 4.86511e-90
2916.51 0.735591 0.158765 0.036136 1.03689e-05 0.0507714 0.0187258 6.76276e-31 1.59627e-47 8.85306e-12 1.36073e-85
2948.73 0.7331 0.155166 0.0371554 1.27603e-05 0.0558891 0.0186766 8.82211e-31 1.37711e-46 9.75565e-12 2.035e-81
2979.84 0.730601 0.151533 0.0381023 1.55199e-05 0.0611219 0.0186263 1.24979e-30 1.10271e-45 1.06969e-11 1.64088e-77
3009.95 0.728098 0.147874 0.0389799 1.86804e-05 0.0664546 0.018575 1.7709e-30 8.11596e-45 1.16773e-11 8.20936e-74
3039.17 0.725594 0.144196 0.039791 2.22764e-05 0.071874 0.0185229 2.50969e-30 5.54226e-44 1.26973e-11 2.68101e-70
3067.59 0.723092 0.140505 0.0405387 2.63444e-05 0.0773678 0.0184701 3.55746e-30 3.54059e-43 1.37577e-11 5.97325e-67
3095.3 0.720596 0.136806 0.0412254 3.0924e-05 0.0829252 0.0184167 1.73416e-26 1.02698e-37 4.0392e-11 6.59402e-63
3122.36 0.718108 0.133104 0.0418537 3.60571e-05 0.0885361 0.0183627 2.45368e-26 5.2082e-37 4.35025e-11 4.541e-60
3148.85 0.71563 0.129402 0.0424259 4.17895e-05 0.0941917 0.0183083 3.4714e-26 2.52879e-36 4.67326e-11 2.41354e-57
3174.82 0.713164 0.125706 0.042944 4.81705e-05 0.0998837 0.0182536 4.912e-26 1.1469e-35 5.00867e-11 1.01478e-54
3200.35 0.710713 0.122018 0.0434102 5.52538e-05 0.105605 0.0181986 6.95287e-26 4.57119e-35 5.35689e-11 3.45042e-52
3225.47 0.708277 0.118342 0.043826 6.30982e-05 0.111348 0.0181433 9.84942e-26 1.77234e-34 5.71859e-11 9.67546e-50
3250.25 0.705859 0.114681 0.0441932 7.17677e-05 0.117107 0.0180879 1.39683e-25 6.70607e-34 6.09444e-11 2.2774e-47
3274.73 0.70346 0.111037 0.0445132 8.1333e-05 0.122876 0.0180324 1.98386e-25 2.48356e-33 6.48515e-11 4.57194e-45
3298.95 0.701081 0.107413 0.0447875 9.18718e-05 0.12865 0.0179768 2.85328e-25 9.1251e-33 6.89156e-11 7.85764e-43
3322.96 0.698724 0.103811 0.0450171 0.00010347 0.134423 0.0179213 4.3319e-25 3.47491e-32 7.31457e-11 1.12425e-40
3346.79 0.696389 0.100234 0.0452032 0.000116223 0.140192 0.0178657 6.58677e-25 1.30388e-31 7.75519e-11 1.42916e-38
3370.48 0.694078 0.0966833 0.0453469 0.000130236 0.145951 0.0178103 1.00359e-24 4.83251e-31 8.21456e-11 1.6321e-36
3394.08 0.691792 0.0931619 0.0454489 0.000145628 0.151697 0.0177549 1.53306e-24 1.77317e-30 8.69392e-11 1.69149e-34
3417.62 0.689532 0.0896714 0.04551 0.00016253 0.157425 0.0176997 2.3492e-24 6.45558e-30 9.19465e-11 1.60611e-32
3441.13 0.687298 0.0862138 0.0455309 0.00018109 0.163131 0.0176447 3.6131e-24 2.33702e-29 9.7183e-11 1.40966e-30
3464.66 0.685093 0.0827911 0.0455122 0.000201473 0.168812 0.0175899 5.58072e-24 8.43027e-29 1.02666e-10 1.1532e-28
3488.23 0.682917 0.0794052 0.0454543 0.000223867 0.174464 0.0175354 2.87423e-27 3.16763e-32 3.98831e-11 9.99876e-25
3511.89 0.68077 0.0760582 0.0453578 0.000248482 0.180084 0.0174812 4.54919e-27 1.11765e-31 4.21017e-11 1.02896e-22
3535.67 0.678655 0.072752 0.0452228 0.000275558 0.185667 0.0174273 7.24962e-27 3.95068e-31 4.44338e-11 1.0057e-20
3559.61 0.676572 0.0694887 0.0450498 0.000305366 0.191211 0.0173738 1.16403e-26 1.40179e-30 4.68892e-11 9.4054e-19
3583.74 0.674522 0.0662703 0.0448387 0.000338216 0.19671 0.0173206 1.88451e-26 5.00263e-30 4.94786e-11 8.47728e-17
3608.11 0.672506 0.0630992 0.0445899 0.000374461 0.202163 0.0172679 3.07856e-26 1.79918e-29 5.22142e-11 7.41519e-15
3632.77 0.670525 0.0599775 0.0443034 0.000414506 0.207564 0.0172156 5.07901e-26 6.53432e-29 5.51115e-11 6.33727e-13
3657.74 0.668581 0.0569078 0.0439791 0.000458816 0.212909 0.0171638 8.48784e-26 2.40659e-28 5.83116e-11 5.31559e-11
3683.08 0.666675 0.0538924 0.0436171 0.000507928 0.218195 0.0171126 1.65324e-31 1.30745e-34 4.38419e-09 4.38419e-09
3708.84 0.664808 0.0509342 0.0432174 0.000562459 0.223416 0.0170619 1.45712e-26 8.39385e-29 5.16007e-09 5.16007e-09
3735.06 0.662981 0.048036 0.0427799 0.000623128 0.228569 0.0170118 4.43828e-27 4.63216e-29 6.07466e-09 6.07466e-09
3761.8 0.661195 0.0452007 0.0423046 0.000690766 0.233647 0.0169624 3.69247e-24 1.29842e-25 7.15475e-09 7.15475e-09
3789.1 0.659452 0.0424318 0.0417915 0.00076634 0.238645 0.0169136 5.46765e-22 5.35909e-23 8.43291e-09 8.43291e-09
3817.03 0.657753 0.0397326 0.0412406 0.000850978 0.243557 0.0168656 9.14819e-21 1.89141e-21 9.94888e-09 9.94888e-09
3845.65 0.656099 0.0371068 0.0406521 0.000945995 0.248378 0.0168184 7.69628e-19 3.53351e-19 1.17513e-08 1.17513e-08
3875.01 0.654492 0.0345583 0.0400262 0.00105293 0.253099 0.016772 8.02443e-18 7.26065e-18 1.38998e-08 1.38998e-08
3905.18 0.652932 0.0320911 0.0393633 0.00117357 0.257713 0.0167265 3.88395e-17 7.46353e-17 1.64676e-08 1.64676e-08
3936.22 0.651421 0.0297097 0.0386642 0.00131002 0.262213 0.016682 2.13662e-15 6.86795e-15 1.95452e-08 1.95452e-08
3968.19 0.649958 0.0274182 0.0379297 0.00146472 0.26659 0.0166385 5.21145e-14 2.10018e-13 2.3244e-08 2.32434e-08
4001.15 0.648545 0.0252214 0.0371612 0.00164051 0.270835 0.016596 1.75672e-13 1.09152e-12 2.77007e-08 2.77e-08
4035.14 0.647182 0.0231236 0.0363605 0.00184067 0.274939 0.0165547 5.06041e-13 4.87637e-12 3.30833e-08 3.30849e-08
4070.23 0.645867 0.0211293 0.0355297 0.00206898 0.278891 0.0165145 1.48345e-12 2.23026e-11 3.95932e-08 3.96113e-08
4106.43 0.644599 0.0192426 0.0346719 0.00232976 0.282681 0.0164756 4.15256e-12 8.10694e-11 4.74681e-08 4.75492e-08
4143.78 0.643376 0.0174671 0.0337903 0.00262785 0.286301 0.0164379 2.16191e-11 1.92634e-10 5.70077e-08 5.72161e-08
4182.25 0.642194 0.0158059 0.0328893 0.00296869 0.28974 0.0164016 5.0427e-11 2.652e-10 6.86285e-08 6.89398e-08
4221.84 0.64105 0.0142612 0.0319736 0.00335818 0.29299 0.0163667 1.12697e-10 3.66459e-10 8.27308e-08 8.32088e-08
4262.49 0.639938 0.0128339 0.0310486 0.00380269 0.296044 0.0163331 1.86103e-10 5.07976e-10 9.98458e-08 1.0054e-07
4304.12 0.63885 0.0115238 0.0301202 0.00430885 0.298896 0.0163008 2.35418e-10 7.05753e-10 1.20591e-07 1.21532e-07
4346.61 0.637781 0.0103295 0.0291945 0.00488342 0.301542 0.0162699 2.9804e-10 9.81408e-10 1.45629e-07 1.46909e-07
4389.82 0.63672 0.00924772 0.0282779 0.00553301 0.303981 0.0162402 3.77263e-10 1.36414e-09 1.75721e-07 1.77462e-07
4433.6 0.635659 0.00827412 0.0273764 0.00626387 0.306214 0.0162117 4.76983e-10 1.89262e-09 2.11693e-07 2.14063e-07
4477.75 0.634589 0.00740295 0.0264956 0.00708158 0.308246 0.0161843 6.01718e-10 2.61718e-09 2.54425e-07 2.57644e-07
4522.08 0.6335 0.00662748 0.0256405 0.00799086 0.310083 0.0161579 7.56599e-10 3.60203e-09 3.04828e-07 3.09187e-07
4566.41 0.632384 0.00594023 0.0248151 0.00899535 0.311732 0.0161325 9.47335e-10 4.92755e-09 3.63821e-07 3.69696e-07
4610.55 0.631234 0.00533334 0.0240227 0.0100975 0.313204 0.0161077 1.18014e-09 6.69228e-09 4.32307e-07 4.40179e-07
4654.31 0.630043 0.00479881 0.0232655 0.0112985 0.31451 0.0160836 1.46165e-09 9.01464e-09 5.11147e-07 5.21623e-07
4697.56 0.628805 0.00432883 0.0225446 0.0125985 0.315662 0.0160601 1.79881e-09 1.20341e-08 6.01142e-07 6.14975e-07
4740.15 0.627517 0.00391596 0.0218606 0.0139964 0.316672 0.0160369 2.19874e-09 1.59122e-08 7.03017e-07 7.21128e-07
4781.99 0.626176 0.00355328 0.0212132 0.0154903 0.317552 0.0160141 2.66868e-09 2.08322e-08 8.17408e-07 8.40909e-07
4822.98 0.62478 0.00323447 0.0206016 0.0170773 0.318313 0.0159916 3.21581e-09 2.69994e-08 9.44857e-07 9.75073e-07
4863.07 0.623328 0.00295388 0.0200245 0.0187541 0.318968 0.0159692 3.84719e-09 3.46397e-08 1.08581e-06 1.1243e-06
4902.21 0.621822 0.00270649 0.0194803 0.0205169 0.319525 0.0159469 4.56969e-09 4.39992e-08 1.24063e-06 1.2892e-06
4940.39 0.620261 0.00248788 0.0189675 0.0223615 0.319995 0.0159246 5.38991e-09 5.53421e-08 1.40956e-06 1.4703e-06
4977.59 0.618647 0.00229424 0.018484 0.0242836 0.320385 0.0159024 6.31416e-09 6.89496e-08 1.59281e-06 1.66807e-06
5013.81 0.616982 0.00212225 0.0180282 0.026279 0.320704 0.0158802 7.34838e-09 8.51177e-08 1.79047e-06 1.88294e-06
5049.06 0.615268 0.00196904 0.0175981 0.0283432 0.320959 0.0158579 8.49817e-09 1.04156e-07 2.0026e-06 2.11525e-06
5083.37 0.613507 0.00183216 0.0171919 0.030472 0.321156 0.0158355 9.76876e-09 1.26385e-07 2.22917e-06 2.36533e-06
5116.76 0.611702 0.0017095 0.016808 0.0326613 0.321301 0.0158131 1.1165e-08 1.52137e-07 2.47013e-06 2.63343e-06
5149.25 0.609854 0.00159925 0.0164447 0.0349071 0.321398 0.0157906 1.26914e-08 1.81749e-07 2.72537e-06 2.91981e-06
5180.87 0.607967 0.00149985 0.0161005 0.0372055 0.321453 0.015768 1.43521e-08 2.15569e-07 2.99475e-06 3.22467e-06
5211.66 0.606043 0.00140997 0.0157741 0.0395531 0.321468 0.0157452 1.61509e-08 2.53948e-07 3.27809e-06 3.54819e-06
5241.65 0.604083 0.00132846 0.0154641 0.0419463 0.321448 0.0157224 1.80914e-08 2.97241e-07 3.57522e-06 3.89055e-06
5270.86 0.60209 0.00125433 0.0151693 0.0443821 0.321396 0.0156995 2.01766e-08 3.45807e-07 3.88591e-06 4.25189e-06
5299.34 0.600067 0.00118673 0.0148886 0.0468573 0.321315 0.0156765 2.24095e-08 4.00006e-07 4.20994e-06 4.63235e-06
5327.11 0.598015 0.00112491 0.014621 0.0493692 0.321206 0.0156534 2.47927e-08 4.60201e-07 4.54706e-06 5.03206e-06
5354.2 0.595936 0.00106823 0.0143656 0.0519151 0.321074 0.0156302 2.73287e-08 5.26754e-07 4.89704e-06 5.45112e-06
5380.65 0.593832 0.00101615 0.0141216 0.0544925 0.320919 0.0156069 3.00196e-08 6.00027e-07 5.25961e-06 5.88965e-06
5406.48 0.591705 0.000968162 0.013888 0.0570992 0.320743 0.0155836 3.28673e-08 6.8038e-07 5.63452e-06 6.34777e-06
5431.72 0.589556 0.000923853 0.0136643 0.059733 0.320549 0.0155601 3.58737e-08 7.68173e-07 6.02151e-06 6.82556e-06
5456.39 0.587387 0.00088285 0.0134497 0.0623918 0.320337 0.0155366 3.90402e-08 8.63763e-07 6.42032e-06 7.32312e-06
5480.53 0.5852 0.000844824 0.0132437 0.0650739 0.320109 0.015513 4.23683e-08 9.67506e-07 6.83069e-06 7.84057e-06
5504.15 0.582995 0.000809487 0.0130458 0.0677773 0.319866 0.0154893 4.58594e-08 1.07975e-06 7.25237e-06 8.37798e-06
5527.27 0.580774 0.000776586 0.0128553 0.0705006 0.31961 0.0154656 4.95144e-08 1.20086e-06 7.68509e-06 8.93546e-06
5549.92 0.578538 0.000745895 0.0126718 0.0732422 0.319341 0.0154418 5.33345e-08 1.33116e-06 8.12862e-06 9.51312e-06
5572.13 0.576289 0.000717214 0.0124949 0.0760006 0.31906 0.015418 5.73205e-08 1.47101e-06 8.5827e-06 1.0111e-05
5593.89 0.574026 0.000690366 0.0123242 0.0787745 0.318769 0.0153941 6.14732e-08 1.62074e-06 9.04709e-06 1.07293e-05
5615.25 0.571753 0.000665191 0.0121594 0.0815626 0.318467 0.0153702 6.57934e-08 1.7807e-06 9.52157e-06 1.13681e-05
5636.21 0.569468 0.000641549 0.0120001 0.0843638 0.318156 0.0153463 7.02815e-08 1.9512e-06 1.00059e-05 1.20274e-05
5656.78 0.567174 0.000619311 0.0118459 0.0871769 0.317837 0.0153223 7.49382e-08 2.13259e-06 1.04998e-05 1.27073e-05
5677 0.56487 0.000598365 0.0116966 0.090001 0.317509 0.0152983 7.97639e-08 2.32518e-06 1.10032e-05 1.34081e-05
5696.86 0.562558 0.000578608 0.011552 0.0928351 0.317174 0.0152743 8.4759e-08 2.5293e-06 1.15157e-05 1.41297e-05
5716.38 0.560239 0.000559946 0.0114117 0.0956782 0.316831 0.0152502 8.99239e-08 2.74527e-06 1.20372e-05 1.48724e-05
5735.59 0.557913 0.000542297 0.0112756 0.0985295 0.316482 0.0152261 9.52588e-08 2.9734e-06 1.25675e-05 1.56361e-05
5754.48 0.55558 0.000525585 0.0111435 0.101388 0.316128 0.0152021 1.00764e-07 3.21399e-06 1.31063e-05 1.64211e-05
5773.07 0.553242 0.000509741 0.011015 0.104254 0.315767 0.015178 1.0644e-07 3.46737e-06 1.36536e-05 1.72274e-05
5791.38 0.550899 0.000494703 0.0108901 0.107125 0.315401 0.0151539 1.12286e-07 3.73382e-06 1.42091e-05 1.80552e-05
5809.4 0.548552 0.000480414 0.0107686 0.110001 0.31503 0.0151298 1.18304e-07 4.01365e-06 1.47725e-05 1.89045e-05
5827.17 0.546201 0.000466822 0.0106503 0.112883 0.314655 0.0151057 1.24492e-07 4.30715e-06 1.53439e-05 1.97755e-05
5844.67 0.543846 0.00045388 0.010535 0.115768 0.314275 0.0150816 1.30852e-07 4.61463e-06 1.59229e-05 2.06684e-05
5861.93 0.541488 0.000441545 0.0104226 0.118656 0.313891 0.0150575 1.37382e-07 4.93636e-06 1.65095e-05 2.15833e-05
5878.95 0.539127 0.000429777 0.0103131 0.121548 0.313503 0.0150334 1.44084e-07 5.27264e-06 1.71035e-05 2.25202e-05
5895.73 0.536765 0.000418539 0.0102062 0.124442 0.313112 0.0150093 1.50958e-07 5.62374e-06 1.77046e-05 2.34793e-05
5912.3 0.5344 0.000407799 0.0101018 0.127338 0.312718 0.0149852 1.58002e-07 5.98995e-06 1.83129e-05 2.44608e-05
5928.65 0.532035 0.000397525 0.00999987 0.130236 0.31232 0.0149612 1.65219e-07 6.37155e-06 1.89281e-05 2.54648e-05
5944.79 0.529668 0.000387689 0.00990026 0.133134 0.31192 0.0149371 1.72606e-07 6.7688e-06 1.95501e-05 2.64915e-05
5960.74 0.5273 0.000378265 0.00980289 0.136034 0.311517 0.0149131 1.80165e-07 7.18199e-06 2.01787e-05 2.75409e-05
5976.48 0.524932 0.000369228 0.00970764 0.138933 0.311111 0.0148891 1.87896e-07 7.61138e-06 2.08139e-05 2.86132e-05
5992.05 0.522564 0.000360556 0.00961445 0.141833 0.310704 0.0148651 1.95798e-07 8.05725e-06 2.14556e-05 2.97086e-05
6007.42 0.520196 0.000352229 0.00952323 0.144732 0.310294 0.0148412 2.03872e-07 8.51984e-06 2.21036e-05 3.08273e-05
6022.63 0.517829 0.000344227 0.0094339 0.14763 0.309882 0.0148173 2.12118e-07 8.99944e-06 2.27577e-05 3.19693e-05
6037.66 0.515462 0.000336532 0.00934639 0.150528 0.309468 0.0147934 2.20535e-07 9.49629e-06 2.3418e-05 3.31348e-05
6052.53 0.513096 0.000329127 0.00926062 0.153424 0.309052 0.0147695 2.29124e-07 1.00107e-05 2.40842e-05 3.4324e-05
6067.23 0.510731 0.000321997 0.00917654 0.156318 0.308635 0.0147456 2.37885e-07 1.05428e-05 2.47564e-05 3.55371e-05
6081.79 0.508368 0.000315128 0.00909409 0.159211 0.308217 0.0147218 2.46818e-07 1.1093e-05 2.54343e-05 3.67741e-05
6096.19 0.506006 0.000308506 0.00901319 0.162102 0.307797 0.0146981 2.55923e-07 1.16614e-05 2.6118e-05 3.80354e-05
6110.44 0.503646 0.000302118 0.0089338 0.16499 0.307376 0.0146743 2.65201e-07 1.22484e-05 2.68073e-05 3.93209e-05
6124.56 0.501287 0.000295952 0.00885587 0.167876 0.306953 0.0146506 2.7465e-07 1.28542e-05 2.75021e-05 4.0631e-05
6138.53 0.498931 0.000289999 0.00877933 0.170759 0.30653 0.0146269 2.84272e-07 1.3479e-05 2.82024e-05 4.19657e-05
6152.37 0.496578 0.000284246 0.00870416 0.173638 0.306105 0.0146033 2.94067e-07 1.41231e-05 2.89081e-05 4.33253e-05
6166.09 0.494227 0.000278686 0.00863029 0.176515 0.30568 0.0145797 3.04034e-07 1.47868e-05 2.9619e-05 4.47098e-05
6179.67 0.491878 0.000273307 0.00855768 0.179389 0.305254 0.0145561 3.14174e-07 1.54702e-05 3.03353e-05 4.61196e-05
6193.14 0.489532 0.000268103 0.0084863 0.182258 0.304827 0.0145326 3.24488e-07 1.61736e-05 3.10566e-05 4.75547e-05
6206.48 0.487189 0.000263064 0.00841611 0.185124 0.3044 0.0145091 3.34974e-07 1.68973e-05 3.17832e-05 4.90154e-05
6219.71 0.484849 0.000258184 0.00834706 0.187987 0.303972 0.0144857 3.45635e-07 1.76415e-05 3.25147e-05 5.05018e-05
6232.83 0.482512 0.000253455 0.00827912 0.190845 0.303544 0.0144623 3.56469e-07 1.84065e-05 3.32513e-05 5.20142e-05
6245.83 0.480179 0.000248871 0.00821226 0.193699 0.303115 0.0144389 3.67478e-07 1.91924e-05 3.39928e-05 5.35526e-05
6258.73 0.477849 0.000244425 0.00814644 0.196549 0.302686 0.0144156 3.78661e-07 1.99996e-05 3.47391e-05 5.51174e-05
6271.53 0.475522 0.000240111 0.00808163 0.199394 0.302256 0.0143923 3.90019e-07 2.08283e-05 3.54904e-05 5.67087e-05
6284.22 0.473199 0.000235924 0.0080178 0.202235 0.301826 0.0143691 4.01551e-07 2.16787e-05 3.62464e-05 5.83266e-05
6296.82 0.47088 0.000231858 0.00795492 0.205071 0.301396 0.014346 4.1326e-07 2.2551e-05 3.70072e-05 5.99714e-05
6309.32 0.468565 0.000227908 0.00789297 0.207902 0.300966 0.0143228 4.25144e-07 2.34456e-05 3.77726e-05 6.16434e-05
6321.73 0.466253 0.00022407 0.00783191 0.210729 0.300536 0.0142997 4.37205e-07 2.43626e-05 3.85428e-05 6.33426e-05
6334.04 0.463945 0.000220339 0.00777173 0.21355 0.300106 0.0142767 4.49443e-07 2.53023e-05 3.93176e-05 6.50693e-05
6346.27 0.461642 0.00021671 0.0077124 0.216366 0.299675 0.0142537 4.61857e-07 2.62649e-05 4.0097e-05 6.68237e-05
6358.41 0.459342 0.00021318 0.00765389 0.219178 0.299245 0.0142308 4.7445e-07 2.72507e-05 4.0881e-05 6.86061e-05
6370.46 0.457047 0.000209745 0.00759618 0.221983 0.298815 0.0142079 4.8722e-07 2.82599e-05 4.16695e-05 7.04166e-05
6382.44 0.454756 0.000206401 0.00753925 0.224784 0.298385 0.0141851 5.0017e-07 2.92928e-05 4.24625e-05 7.22554e-05
6394.33 0.45247 0.000203144 0.00748308 0.227579 0.297955 0.0141623 5.13298e-07 3.03495e-05 4.326e-05 7.41228e-05
6406.15 0.450188 0.000199972 0.00742765 0.230368 0.297525 0.0141395 5.26607e-07 3.14305e-05 4.4062e-05 7.60191e-05
6417.89 0.44791 0.000196881 0.00737294 0.233152 0.297095 0.0141169 5.40096e-07 3.25358e-05 4.48684e-05 7.79443e-05
6429.55 0.445637 0.000193868 0.00731893 0.235931 0.296666 0.0140942 5.53767e-07 3.36657e-05 4.56793e-05 7.98988e-05
6441.14 0.443368 0.000190931 0.0072656 0.238703 0.296237 0.0140716 5.67619e-07 3.48206e-05 4.64946e-05 8.18827e-05
6452.66 0.441104 0.000188066 0.00721294 0.24147 0.295808 0.0140491 5.81653e-07 3.60005e-05 4.73142e-05 8.38964e-05
6464.11 0.438845 0.000185271 0.00716093 0.244231 0.295379 0.0140266 5.95871e-07 3.72059e-05 4.81383e-05 8.594e-05
6475.5 0.43659 0.000182543 0.00710955 0.246986 0.294951 0.0140042 6.10273e-07 3.84369e-05 4.89667e-05 8.80139e-05
6486.82 0.434341 0.000179881 0.00705879 0.249735 0.294524 0.0139818 6.2486e-07 3.96937e-05 4.97995e-05 9.01181e-05
6498.07 0.432096 0.000177282 0.00700863 0.252478 0.294096 0.0139595 6.39632e-07 4.09767e-05 5.06367e-05 9.2253e-05
6509.26 0.429856 0.000174743 0.00695906 0.255215 0.293669 0.0139372 6.54591e-07 4.22862e-05 5.14782e-05 9.44189e-05
6520.39 0.427621 0.000172263 0.00691007 0.257946 0.293243 0.013915 6.69736e-07 4.36222e-05 5.2324e-05 9.6616e-05
6531.46 0.42539 0.00016984 0.00686164 0.26067 0.292817 0.0138928 6.85071e-07 4.49852e-05 5.31742e-05 9.88445e-05
6542.47 0.423165 0.000167472 0.00681375 0.263389 0.292392 0.0138707 7.00594e-07 4.63753e-05 5.40287e-05 0.000101105
6553.42 0.420945 0.000165157 0.0067664 0.266101 0.291967 0.0138487 7.16307e-07 4.77929e-05 5.48876e-05 0.000103397
6564.32 0.41873 0.000162893 0.00671958 0.268807 0.291542 0.0138267 7.32211e-07 4.92381e-05 5.57509e-05 0.000105721
6575.16 0.41652 0.000160679 0.00667326 0.271507 0.291119 0.0138047 7.48307e-07 5.07114e-05 5.66184e-05 0.000108078
6585.95 0.414314 0.000158513 0.00662745 0.2742 0.290695 0.0137828 7.64596e-07 5.22128e-05 5.74904e-05 0.000110468
6596.69 0.412115 0.000156393 0.00658213 0.276887 0.290273 0.013761 7.81079e-07 5.37428e-05 5.83667e-05 0.000112891
6607.38 0.40992 0.000154319 0.00653728 0.279568 0.289851 0.0137392 7.97758e-07 5.53015e-05 5.92474e-05 0.000115347
6618.01 0.40773 0.000152288 0.0064929 0.282242 0.289429 0.0137175 8.14632e-07 5.68892e-05 6.01324e-05 0.000117836
6628.6 0.405546 0.0001503 0.00644898 0.28491 0.289009 0.0136958 8.31705e-07 5.85063e-05 6.10219e-05 0.00012036
6639.14 0.403367 0.000148352 0.00640551 0.287571 0.288588 0.0136742 8.48975e-07 6.0153e-05 6.19157e-05 0.000122918
6649.64 0.401193 0.000146445 0.00636248 0.290226 0.288169 0.0136526 8.66446e-07 6.18296e-05 6.2814e-05 0.00012551
6660.09 0.399024 0.000144576 0.00631988 0.292874 0.28775 0.0136311 8.84118e-07 6.35363e-05 6.37167e-05 0.000128137
6670.49 0.39686 0.000142745 0.0062777 0.295516 0.287332 0.0136097 9.01993e-07 6.52734e-05 6.46239e-05 0.000130799
6680.85 0.394702 0.00014095 0.00623594 0.298151 0.286915 0.0135883 9.20071e-07 6.70414e-05 6.55355e-05 0.000133497
6691.17 0.392549 0.000139191 0.00619457 0.30078 0.286498 0.0135669 9.38355e-07 6.88403e-05 6.64517e-05 0.00013623
6701.45 0.390402 0.000137466 0.00615361 0.303401 0.286082 0.0135456 9.56845e-07 7.06706e-05 6.73723e-05 0.000139
6711.69 0.388259 0.000135774 0.00611303 0.306017 0.285667 0.0135244 9.75543e-07 7.25325e-05 6.82975e-05 0.000141806
6721.88 0.386123 0.000134115 0.00607283 0.308626 0.285252 0.0135032 9.94451e-07 7.44263e-05 6.92273e-05 0.000144648
6732.04 0.383991 0.000132487 0.00603301 0.311228 0.284839 0.0134821 1.01357e-06 7.63524e-05 7.01616e-05 0.000147528
6742.17 0.381865 0.00013089 0.00599355 0.313823 0.284426 0.013461 1.0329e-06 7.8311e-05 7.11005e-05 0.000150444
6752.25 0.379744 0.000129323 0.00595445 0.316412 0.284014 0.01344 1.05245e-06 8.03025e-05 7.20441e-05 0.000153399
6762.3 0.377628 0.000127785 0.0059157 0.318994 0.283602 0.013419 1.07221e-06 8.23272e-05 7.29924e-05 0.000156392
6772.32 0.375518 0.000126275 0.0058773 0.321569 0.283192 0.0133981 1.09219e-06 8.43853e-05 7.39453e-05 0.000159423
6782.3 0.373414 0.000124792 0.00583924 0.324138 0.282782 0.0133773 1.11238e-06 8.64773e-05 7.4903e-05 0.000162493
6792.24 0.371314 0.000123336 0.00580151 0.3267 0.282373 0.0133565 1.1328e-06 8.86034e-05 7.58655e-05 0.000165602
6802.16 0.369221 0.000121906 0.00576411 0.329255 0.281965 0.0133357 1.15344e-06 9.0764e-05 7.68327e-05 0.00016875
6812.04 0.367132 0.000120502 0.00572703 0.331804 0.281557 0.0133151 1.17431e-06 9.29594e-05 7.78048e-05 0.000171938
6821.89 0.365049 0.000119122 0.00569026 0.334346 0.281151 0.0132944 1.1954e-06 9.519e-05 7.87817e-05 0.000175167
6831.71 0.362971 0.000117766 0.0056538 0.336881 0.280745 0.0132739 1.21672e-06 9.7456e-05 7.97636e-05 0.000178436
6841.5 0.360899 0.000116433 0.00561764 0.33941 0.28034 0.0132533 1.23827e-06 9.97579e-05 8.07504e-05 0.000181747
6851.26 0.358832 0.000115124 0.00558179 0.341931 0.279936 0.0132329 1.26005e-06 0.000102096 8.17422e-05 0.000185098
6861 0.356771 0.000113836 0.00554623 0.344446 0.279533 0.0132125 1.28207e-06 0.000104471 8.27391e-05 0.000188492
6870.7 0.354715 0.00011257 0.00551095 0.346955 0.279131 0.0131921 1.30432e-06 0.000106882 8.3741e-05 0.000191927
6880.38 0.352664 0.000111326 0.00547596 0.349456 0.278729 0.0131718 1.32681e-06 0.000109331 8.4748e-05 0.000195406
6890.04 0.350619 0.000110102 0.00544124 0.351951 0.278329 0.0131516 1.34954e-06 0.000111817 8.57602e-05 0.000198927
6899.67 0.348579 0.000108898 0.0054068 0.354439 0.277929 0.0131314 1.37252e-06 0.000114342 8.67776e-05 0.000202492
6909.27 0.346545 0.000107714 0.00537263 0.356921 0.27753 0.0131113 1.39574e-06 0.000116905 8.78003e-05 0.000206101
6918.85 0.344516 0.000106549 0.00533872 0.359395 0.277132 0.0130912 1.4192e-06 0.000119507 8.88283e-05 0.000209754
6928.41 0.342493 0.000105402 0.00530507 0.361863 0.276735 0.0130711 1.44292e-06 0.000122148 8.98617e-05 0.000213452
6937.94 0.340475 0.000104274 0.00527168 0.364324 0.276339 0.0130512 1.46689e-06 0.000124828 9.09004e-05 0.000217195
6947.45 0.338462 0.000103164 0.00523854 0.366779 0.275944 0.0130313 1.49111e-06 0.000127549 9.19447e-05 0.000220984
6956.94 0.336455 0.000102071 0.00520565 0.369227 0.275549 0.0130114 1.51559e-06 0.00013031 9.29944e-05 0.00022482
6966.41 0.334453 0.000100995 0.005173 0.371668 0.275156 0.0129916 1.54033e-06 0.000133111 9.40498e-05 0.000228701
6975.86 0.332457 9.9936e-05 0.00514058 0.374102 0.274763 0.0129718 1.56533e-06 0.000135954 9.51108e-05 0.00023263
6985.28 0.330466 9.8893e-05 0.00510841 0.37653 0.274372 0.0129521 1.5906e-06 0.000138839 9.61775e-05 0.000236607
6994.69 0.32848 9.78658e-05 0.00507646 0.378951 0.273981 0.0129325 1.61613e-06 0.000141766 9.72499e-05 0.000240632
7004.08 0.3265 9.68542e-05 0.00504475 0.381365 0.273591 0.0129129 1.64194e-06 0.000144735 9.83282e-05 0.000244705
7013.45 0.324526 9.58577e-05 0.00501325 0.383772 0.273202 0.0128934 1.66802e-06 0.000147747 9.94124e-05 0.000248828
7022.81 0.322556 9.4876e-05 0.00498198 0.386173 0.272814 0.0128739 1.69437e-06 0.000150803 0.000100503 0.000253
7032.14 0.320592 9.39089e-05 0.00495093 0.388567 0.272427 0.0128545 1.721e-06 0.000153903 0.000101599 0.000257222
7041.46 0.318634 9.29559e-05 0.00492009 0.390955 0.27204 0.0128351 1.74792e-06 0.000157047 0.000102701 0.000261495
7050.77 0.31668 9.20168e-05 0.00488946 0.393336 0.271655 0.0128158 1.77512e-06 0.000160236 0.000103809 0.00026582
7060.06 0.314732 9.10912e-05 0.00485904 0.39571 0.271271 0.0127965 1.80261e-06 0.00016347 0.000104924 0.000270196
7069.33 0.31279 9.01789e-05 0.00482882 0.398077 0.270887 0.0127773 1.83039e-06 0.00016675 0.000106045 0.000274625
7078.59 0.310853 8.92796e-05 0.00479881 0.400438 0.270505 0.0127581 1.85846e-06 0.000170076 0.000107172 0.000279107
7087.84 0.308921 8.8393e-05 0.00476899 0.402792 0.270123 0.012739 1.88683e-06 0.000173449 0.000108306 0.000283642
7097.07 0.306994 8.75188e-05 0.00473937 0.40514 0.269742 0.01272 1.91551e-06 0.00017687 0.000109446 0.000288232
7106.29 0.305073 8.66569e-05 0.00470994 0.407481 0.269363 0.012701 1.94449e-06 0.000180338 0.000110593 0.000292876
7115.5 0.303158 8.58068e-05 0.0046807 0.409815 0.268984 0.012682 1.97378e-06 0.000183855 0.000111747 0.000297576
7124.69 0.301247 8.49684e-05 0.00465165 0.412143 0.268606 0.0126631 2.00338e-06 0.000187421 0.000112907 0.000302331
7133.87 0.299342 8.41415e-05 0.00462278 0.414464 0.268229 0.0126443 2.0333e-06 0.000191036 0.000114074 0.000307144
7143.05 0.297442 8.33257e-05 0.0045941 0.416778 0.267853 0.0126255 2.06353e-06 0.000194702 0.000115248 0.000312013
7152.21 0.295547 8.2521e-05 0.00456559 0.419086 0.267478 0.0126067 2.09409e-06 0.000198418 0.000116429 0.000316941
7161.36 0.293658 8.1727e-05 0.00453726 0.421388 0.267103 0.012588 2.12498e-06 0.000202185 0.000117618 0.000321927
7170.51 0.291774 8.09435e-05 0.0045091 0.423682 0.26673 0.0125694 2.1562e-06 0.000206004 0.000118813 0.000326973
7179.64 0.289895 8.01703e-05 0.00448111 0.425971 0.266358 0.0125508 2.18775e-06 0.000209875 0.000120016 0.000332079
7188.76 0.288022 7.94073e-05 0.0044533 0.428252 0.265986 0.0125323 2.21965e-06 0.000213799 0.000121226 0.000337245
7197.88 0.286154 7.86542e-05 0.00442565 0.430527 0.265616 0.0125138 2.25189e-06 0.000217777 0.000122444 0.000342473
7206.99 0.284291 7.79108e-05 0.00439816 0.432796 0.265246 0.0124954 2.28447e-06 0.000221809 0.000123669 0.000347763
7216.09 0.282433 7.71769e-05 0.00437084 0.435058 0.264878 0.012477 2.31741e-06 0.000225896 0.000124902 0.000353116
7225.19 0.280581 7.64524e-05 0.00434367 0.437314 0.26451 0.0124587 2.35071e-06 0.000230039 0.000126143 0.000358533
7234.28 0.278734 7.5737e-05 0.00431666 0.439563 0.264143 0.0124404 2.38437e-06 0.000234238 0.000127391 0.000364014
7243.36 0.276892 7.50307e-05 0.00428981 0.441805 0.263777 0.0124222 2.41839e-06 0.000238493 0.000128648 0.00036956
7252.44 0.275055 7.43331e-05 0.00426311 0.444041 0.263412 0.012404 2.45279e-06 0.000242807 0.000129913 0.000375172
7261.52 0.273223 7.36442e-05 0.00423657 0.446271 0.263048 0.0123859 2.48757e-06 0.000247178 0.000131186 0.000380852
7270.59 0.271397 7.29638e-05 0.00421017 0.448494 0.262685 0.0123678 2.52272e-06 0.000251608 0.000132467 0.000386598