VARIABLES = "x", "y", "density", "u-vel", "v-vel", "energy", "pressure", "temperature", "a", "mach", "e" 
ZONE T="Flow Field", I=201, J=101, F=BLOCK
VARLOCATION=([3-11]=CELLCENTERED)
# GRIDTYPE = "Cylinder"
# U_inlet = 0.001, 5.45336, 0, 15035.3
# BOUNDARY_CONDITIONS:
# Left   = Outlet
# Right  = Symmetry
# Bottom = Symmetry
# Top    = Inlet
-8.8469e-11 
-0.00078539 
-0.00157073 
-0.00235598 
-0.00314108 
-0.00392598 
-0.00471065 
-0.00549502 
-0.00627905 
-0.0070627 
-0.00784591 
-0.00862864 
-0.00941083 
-0.0101924 
-0.0109734 
-0.0117537 
-0.0125333 
-0.0133121 
-0.0140901 
-0.0148672 
-0.0156434 
-0.0164187 
-0.0171929 
-0.0179661 
-0.0187381 
-0.019509 
-0.0202787 
-0.0210472 
-0.0218143 
-0.0225801 
-0.0233445 
-0.0241075 
-0.024869 
-0.0256289 
-0.0263873 
-0.027144 
-0.0278991 
-0.0286525 
-0.029404 
-0.0301538 
-0.0309017 
-0.0316477 
-0.0323917 
-0.0331338 
-0.0338738 
-0.0346117 
-0.0353475 
-0.0360811 
-0.0368125 
-0.0375416 
-0.0382683 
-0.0389928 
-0.0397148 
-0.0404344 
-0.0411514 
-0.041866 
-0.0425779 
-0.0432873 
-0.0439939 
-0.0446979 
-0.0453991 
-0.0460974 
-0.046793 
-0.0474856 
-0.0481754 
-0.0488621 
-0.0495459 
-0.0502266 
-0.0509041 
-0.0515786 
-0.0522499 
-0.0529179 
-0.0535827 
-0.0542442 
-0.0549023 
-0.055557 
-0.0562083 
-0.0568562 
-0.0575005 
-0.0581413 
-0.0587785 
-0.0594121 
-0.060042 
-0.0606682 
-0.0612907 
-0.0619094 
-0.0625243 
-0.0631353 
-0.0637424 
-0.0643456 
-0.0649448 
-0.06554 
-0.0661312 
-0.0667183 
-0.0673013 
-0.0678801 
-0.0684547 
-0.0690251 
-0.0695913 
-0.0701531 
-0.0707107 
-0.0712639 
-0.0718126 
-0.072357 
-0.0728969 
-0.0734323 
-0.0739631 
-0.0744894 
-0.0750111 
-0.0755282 
-0.0760406 
-0.0765483 
-0.0770513 
-0.0775496 
-0.078043 
-0.0785317 
-0.0790155 
-0.0794944 
-0.0799685 
-0.0804376 
-0.0809017 
-0.0813608 
-0.081815 
-0.0822641 
-0.0827081 
-0.083147 
-0.0835807 
-0.0840094 
-0.0844328 
-0.084851 
-0.085264 
-0.0856718 
-0.0860742 
-0.0864713 
-0.0868632 
-0.0872496 
-0.0876307 
-0.0880063 
-0.0883766 
-0.0887413 
-0.0891007 
-0.0894545 
-0.0898028 
-0.0901455 
-0.0904827 
-0.0908143 
-0.0911403 
-0.0914607 
-0.0917755 
-0.0920845 
-0.092388 
-0.0926857 
-0.0929776 
-0.0932639 
-0.0935444 
-0.0938191 
-0.0940881 
-0.0943512 
-0.0946085 
-0.09486 
-0.0951057 
-0.0953454 
-0.0955793 
-0.0958073 
-0.0960294 
-0.0962455 
-0.0964557 
-0.09666 
-0.0968583 
-0.0970506 
-0.097237 
-0.0974173 
-0.0975917 
-0.09776 
-0.0979223 
-0.0980785 
-0.0982287 
-0.0983729 
-0.0985109 
-0.0986429 
-0.0987688 
-0.0988886 
-0.0990024 
-0.09911 
-0.0992115 
-0.0993068 
-0.0993961 
-0.0994792 
-0.0995562 
-0.099627 
-0.0996917 
-0.0997503 
-0.0998027 
-0.0998489 
-0.099889 
-0.0999229 
-0.0999507 
-0.0999722 
-0.0999877 
-0.0999969 
-0.1 
-8.85575e-11 
-0.000786176 
-0.0015723 
-0.00235833 
-0.00314422 
-0.00392991 
-0.00471536 
-0.00550051 
-0.00628533 
-0.00706976 
-0.00785376 
-0.00863727 
-0.00942024 
-0.0102026 
-0.0109844 
-0.0117655 
-0.0125459 
-0.0133254 
-0.0141042 
-0.0148821 
-0.0156591 
-0.0164351 
-0.0172101 
-0.017984 
-0.0187569 
-0.0195285 
-0.020299 
-0.0210682 
-0.0218361 
-0.0226027 
-0.0233679 
-0.0241316 
-0.0248939 
-0.0256546 
-0.0264137 
-0.0271712 
-0.027927 
-0.0286811 
-0.0294334 
-0.0301839 
-0.0309326 
-0.0316793 
-0.0324241 
-0.0331669 
-0.0339077 
-0.0346463 
-0.0353828 
-0.0361172 
-0.0368493 
-0.0375791 
-0.0383066 
-0.0390318 
-0.0397545 
-0.0404748 
-0.0411926 
-0.0419078 
-0.0426205 
-0.0433305 
-0.0440379 
-0.0447426 
-0.0454444 
-0.0461435 
-0.0468398 
-0.0475331 
-0.0482235 
-0.048911 
-0.0495954 
-0.0502768 
-0.050955 
-0.0516302 
-0.0523021 
-0.0529708 
-0.0536363 
-0.0542984 
-0.0549572 
-0.0556126 
-0.0562645 
-0.056913 
-0.057558 
-0.0581995 
-0.0588373 
-0.0594715 
-0.0601021 
-0.0607289 
-0.061352 
-0.0619713 
-0.0625868 
-0.0631984 
-0.0638061 
-0.0644099 
-0.0650097 
-0.0656056 
-0.0661973 
-0.066785 
-0.0673686 
-0.067948 
-0.0685232 
-0.0690941 
-0.0696609 
-0.0702233 
-0.0707814 
-0.0713351 
-0.0718844 
-0.0724293 
-0.0729698 
-0.0735057 
-0.0740371 
-0.0745639 
-0.0750861 
-0.0756037 
-0.0761166 
-0.0766249 
-0.0771284 
-0.0776271 
-0.0781211 
-0.0786102 
-0.0790945 
-0.0795739 
-0.0800484 
-0.080518 
-0.0809826 
-0.0814422 
-0.0818968 
-0.0823463 
-0.0827908 
-0.0832301 
-0.0836643 
-0.0840934 
-0.0845172 
-0.0849359 
-0.0853493 
-0.0857574 
-0.0861603 
-0.0865578 
-0.08695 
-0.0873369 
-0.0877183 
-0.0880943 
-0.0884649 
-0.0888301 
-0.0891898 
-0.0895439 
-0.0898926 
-0.0902357 
-0.0905732 
-0.0909051 
-0.0912315 
-0.0915522 
-0.0918672 
-0.0921766 
-0.0924803 
-0.0927783 
-0.0930706 
-0.0933572 
-0.0936379 
-0.093913 
-0.0941822 
-0.0944456 
-0.0947031 
-0.0949549 
-0.0952008 
-0.0954408 
-0.0956749 
-0.0959031 
-0.0961254 
-0.0963418 
-0.0965522 
-0.0967567 
-0.0969552 
-0.0971477 
-0.0973342 
-0.0975148 
-0.0976893 
-0.0978578 
-0.0980202 
-0.0981766 
-0.098327 
-0.0984712 
-0.0986094 
-0.0987416 
-0.0988676 
-0.0989875 
-0.0991014 
-0.0992091 
-0.0993107 
-0.0994062 
-0.0994955 
-0.0995787 
-0.0996558 
-0.0997267 
-0.0997914 
-0.09985 
-0.0999025 
-0.0999488 
-0.0999889 
-0.100023 
-0.100051 
-0.100072 
-0.100088 
-0.100097 
-0.1001 
-8.86505e-11 
-0.000787002 
-0.00157395 
-0.00236081 
-0.00314752 
-0.00393404 
-0.00472031 
-0.00550629 
-0.00629193 
-0.00707719 
-0.007862 
-0.00864634 
-0.00943013 
-0.0102134 
-0.0109959 
-0.0117778 
-0.012559 
-0.0133394 
-0.014119 
-0.0148977 
-0.0156755 
-0.0164524 
-0.0172282 
-0.0180029 
-0.0187766 
-0.019549 
-0.0203203 
-0.0210903 
-0.0218591 
-0.0226264 
-0.0233924 
-0.0241569 
-0.02492 
-0.0256815 
-0.0264414 
-0.0271997 
-0.0279563 
-0.0287112 
-0.0294643 
-0.0302156 
-0.030965 
-0.0317126 
-0.0324581 
-0.0332017 
-0.0339432 
-0.0346826 
-0.0354199 
-0.036155 
-0.0368879 
-0.0376185 
-0.0383468 
-0.0390727 
-0.0397962 
-0.0405172 
-0.0412357 
-0.0419517 
-0.0426652 
-0.0433759 
-0.044084 
-0.0447894 
-0.045492 
-0.0461919 
-0.0468888 
-0.0475829 
-0.048274 
-0.0489622 
-0.0496473 
-0.0503294 
-0.0510084 
-0.0516842 
-0.0523569 
-0.0530263 
-0.0536924 
-0.0543552 
-0.0550147 
-0.0556708 
-0.0563234 
-0.0569726 
-0.0576182 
-0.0582604 
-0.0588989 
-0.0595337 
-0.0601649 
-0.0607924 
-0.0614162 
-0.0620361 
-0.0626522 
-0.0632645 
-0.0638729 
-0.0644773 
-0.0650777 
-0.0656742 
-0.0662665 
-0.0668548 
-0.067439 
-0.068019 
-0.0685948 
-0.0691664 
-0.0697337 
-0.0702967 
-0.0708554 
-0.0714097 
-0.0719596 
-0.072505 
-0.073046 
-0.0735825 
-0.0741144 
-0.0746418 
-0.0751646 
-0.0756827 
-0.0761961 
-0.0767049 
-0.0772089 
-0.0777082 
-0.0782027 
-0.0786923 
-0.0791771 
-0.079657 
-0.080132 
-0.0806021 
-0.0810671 
-0.0815272 
-0.0819823 
-0.0824323 
-0.0828772 
-0.083317 
-0.0837516 
-0.0841811 
-0.0846054 
-0.0850245 
-0.0854383 
-0.0858469 
-0.0862502 
-0.0866481 
-0.0870407 
-0.087428 
-0.0878098 
-0.0881862 
-0.0885572 
-0.0889227 
-0.0892828 
-0.0896373 
-0.0899863 
-0.0903298 
-0.0906676 
-0.0909999 
-0.0913266 
-0.0916476 
-0.091963 
-0.0922727 
-0.0925768 
-0.0928751 
-0.0931677 
-0.0934545 
-0.0937356 
-0.0940108 
-0.0942803 
-0.094544 
-0.0948019 
-0.0950538 
-0.0953 
-0.0955402 
-0.0957746 
-0.096003 
-0.0962256 
-0.0964422 
-0.0966528 
-0.0968575 
-0.0970562 
-0.0972489 
-0.0974356 
-0.0976164 
-0.097791 
-0.0979597 
-0.0981223 
-0.0982789 
-0.0984294 
-0.0985738 
-0.0987122 
-0.0988444 
-0.0989706 
-0.0990907 
-0.0992046 
-0.0993124 
-0.0994141 
-0.0995097 
-0.0995991 
-0.0996824 
-0.0997596 
-0.0998305 
-0.0998954 
-0.099954 
-0.100007 
-0.100053 
-0.100093 
-0.100127 
-0.100155 
-0.100176 
-0.100192 
-0.100201 
-0.100204 
-8.87484e-11 
-0.00078787 
-0.00157569 
-0.00236342 
-0.00315099 
-0.00393838 
-0.00472552 
-0.00551237 
-0.00629887 
-0.00708499 
-0.00787068 
-0.00865587 
-0.00944053 
-0.0102246 
-0.0110081 
-0.0117908 
-0.0125729 
-0.0133541 
-0.0141346 
-0.0149142 
-0.0156928 
-0.0164705 
-0.0172471 
-0.0180227 
-0.0187972 
-0.0195706 
-0.0203427 
-0.0211136 
-0.0218831 
-0.0226513 
-0.0234181 
-0.0241835 
-0.0249474 
-0.0257097 
-0.0264705 
-0.0272296 
-0.0279871 
-0.0287428 
-0.0294967 
-0.0302488 
-0.0309991 
-0.0317474 
-0.0324938 
-0.0332382 
-0.0339805 
-0.0347207 
-0.0354588 
-0.0361947 
-0.0369284 
-0.0376598 
-0.0383889 
-0.0391156 
-0.0398399 
-0.0405617 
-0.041281 
-0.0419978 
-0.042712 
-0.0434235 
-0.0441324 
-0.0448386 
-0.045542 
-0.0462425 
-0.0469403 
-0.0476351 
-0.048327 
-0.0490159 
-0.0497018 
-0.0503846 
-0.0510643 
-0.0517409 
-0.0524142 
-0.0530844 
-0.0537512 
-0.0544148 
-0.055075 
-0.0557317 
-0.0563851 
-0.057035 
-0.0576813 
-0.0583241 
-0.0589633 
-0.0595989 
-0.0602308 
-0.0608589 
-0.0614834 
-0.062104 
-0.0627208 
-0.0633337 
-0.0639427 
-0.0645478 
-0.0651489 
-0.0657459 
-0.066339 
-0.0669279 
-0.0675127 
-0.0680933 
-0.0686697 
-0.0692419 
-0.0698098 
-0.0703735 
-0.0709327 
-0.0714876 
-0.0720381 
-0.0725842 
-0.0731257 
-0.0736628 
-0.0741953 
-0.0747232 
-0.0752466 
-0.0757652 
-0.0762793 
-0.0767886 
-0.0772931 
-0.0777929 
-0.0782879 
-0.0787781 
-0.0792634 
-0.0797438 
-0.0802193 
-0.0806899 
-0.0811555 
-0.0816161 
-0.0820716 
-0.0825221 
-0.0829675 
-0.0834077 
-0.0838428 
-0.0842728 
-0.0846975 
-0.0851171 
-0.0855314 
-0.0859404 
-0.0863441 
-0.0867424 
-0.0871354 
-0.0875231 
-0.0879053 
-0.0882822 
-0.0886536 
-0.0890195 
-0.0893799 
-0.0897348 
-0.0900842 
-0.090428 
-0.0907662 
-0.0910989 
-0.0914259 
-0.0917473 
-0.092063 
-0.092373 
-0.0926774 
-0.092976 
-0.0932689 
-0.093556 
-0.0938374 
-0.094113 
-0.0943828 
-0.0946467 
-0.0949048 
-0.0951571 
-0.0954035 
-0.095644 
-0.0958786 
-0.0961073 
-0.0963301 
-0.0965469 
-0.0967578 
-0.0969627 
-0.0971616 
-0.0973545 
-0.0975414 
-0.0977223 
-0.0978972 
-0.098066 
-0.0982288 
-0.0983856 
-0.0985362 
-0.0986808 
-0.0988193 
-0.0989517 
-0.099078 
-0.0991982 
-0.0993123 
-0.0994202 
-0.099522 
-0.0996177 
-0.0997072 
-0.0997906 
-0.0998678 
-0.0999389 
-0.100004 
-0.100062 
-0.100115 
-0.100161 
-0.100202 
-0.100236 
-0.100263 
-0.100285 
-0.100301 
-0.10031 
-0.100313 
-8.88513e-11 
-0.000788784 
-0.00157752 
-0.00236616 
-0.00315465 
-0.00394294 
-0.00473099 
-0.00551875 
-0.00630617 
-0.0070932 
-0.00787979 
-0.0086659 
-0.00945147 
-0.0102365 
-0.0110208 
-0.0118045 
-0.0125874 
-0.0133696 
-0.0141509 
-0.0149314 
-0.0157109 
-0.0164895 
-0.0172671 
-0.0180436 
-0.018819 
-0.0195932 
-0.0203662 
-0.0211379 
-0.0219084 
-0.0226775 
-0.0234452 
-0.0242114 
-0.0249762 
-0.0257394 
-0.026501 
-0.027261 
-0.0280193 
-0.0287759 
-0.0295307 
-0.0302837 
-0.0310348 
-0.031784 
-0.0325313 
-0.0332765 
-0.0340197 
-0.0347607 
-0.0354997 
-0.0362364 
-0.0369709 
-0.0377031 
-0.038433 
-0.0391606 
-0.0398857 
-0.0406083 
-0.0413285 
-0.0420461 
-0.0427611 
-0.0434734 
-0.0441831 
-0.0448901 
-0.0455943 
-0.0462956 
-0.0469942 
-0.0476898 
-0.0483825 
-0.0490721 
-0.0497588 
-0.0504424 
-0.0511229 
-0.0518002 
-0.0524743 
-0.0531452 
-0.0538128 
-0.0544771 
-0.0551381 
-0.0557956 
-0.0564497 
-0.0571003 
-0.0577474 
-0.0583909 
-0.0590308 
-0.0596671 
-0.0602997 
-0.0609286 
-0.0615537 
-0.062175 
-0.0627925 
-0.0634061 
-0.0640158 
-0.0646216 
-0.0652233 
-0.0658211 
-0.0664148 
-0.0670043 
-0.0675898 
-0.0681711 
-0.0687481 
-0.069321 
-0.0698895 
-0.0704538 
-0.0710137 
-0.0715692 
-0.0721203 
-0.0726669 
-0.0732091 
-0.0737468 
-0.0742799 
-0.0748084 
-0.0753323 
-0.0758516 
-0.0763662 
-0.076876 
-0.0773812 
-0.0778815 
-0.0783771 
-0.0788678 
-0.0793536 
-0.0798346 
-0.0803106 
-0.0807817 
-0.0812478 
-0.0817089 
-0.0821649 
-0.0826159 
-0.0830618 
-0.0835025 
-0.0839381 
-0.0843686 
-0.0847938 
-0.0852138 
-0.0856285 
-0.086038 
-0.0864421 
-0.0868409 
-0.0872344 
-0.0876224 
-0.0880051 
-0.0883824 
-0.0887541 
-0.0891205 
-0.0894813 
-0.0898366 
-0.0901863 
-0.0905305 
-0.0908691 
-0.0912021 
-0.0915295 
-0.0918513 
-0.0921673 
-0.0924777 
-0.0927824 
-0.0930813 
-0.0933746 
-0.093662 
-0.0939437 
-0.0942196 
-0.0944896 
-0.0947539 
-0.0950123 
-0.0952648 
-0.0955115 
-0.0957522 
-0.0959871 
-0.0962161 
-0.0964391 
-0.0966561 
-0.0968672 
-0.0970723 
-0.0972715 
-0.0974646 
-0.0976517 
-0.0978328 
-0.0980079 
-0.0981769 
-0.0983399 
-0.0984968 
-0.0986476 
-0.0987924 
-0.098931 
-0.0990636 
-0.09919 
-0.0993103 
-0.0994245 
-0.0995326 
-0.0996345 
-0.0997303 
-0.0998199 
-0.0999033 
-0.0999806 
-0.100052 
-0.100117 
-0.100176 
-0.100228 
-0.100275 
-0.100315 
-0.100349 
-0.100377 
-0.100398 
-0.100414 
-0.100423 
-0.100426 
-8.89596e-11 
-0.000789745 
-0.00157944 
-0.00236904 
-0.00315849 
-0.00394774 
-0.00473675 
-0.00552547 
-0.00631385 
-0.00710183 
-0.00788938 
-0.00867643 
-0.00946296 
-0.0102489 
-0.0110342 
-0.0118188 
-0.0126027 
-0.0133858 
-0.0141681 
-0.0149495 
-0.01573 
-0.0165095 
-0.017288 
-0.0180655 
-0.0188418 
-0.0196169 
-0.0203909 
-0.0211636 
-0.0219349 
-0.022705 
-0.0234736 
-0.0242408 
-0.0250064 
-0.0257706 
-0.0265331 
-0.027294 
-0.0280532 
-0.0288107 
-0.0295664 
-0.0303203 
-0.0310723 
-0.0318224 
-0.0325706 
-0.0333167 
-0.0340607 
-0.0348027 
-0.0355425 
-0.0362801 
-0.0370155 
-0.0377486 
-0.0384794 
-0.0392078 
-0.0399338 
-0.0406573 
-0.0413783 
-0.0420967 
-0.0428126 
-0.0435258 
-0.0442363 
-0.0449441 
-0.0456491 
-0.0463513 
-0.0470507 
-0.0477471 
-0.0484406 
-0.0491311 
-0.0498186 
-0.050503 
-0.0511843 
-0.0518624 
-0.0525373 
-0.053209 
-0.0538774 
-0.0545425 
-0.0552042 
-0.0558625 
-0.0565174 
-0.0571687 
-0.0578166 
-0.0584609 
-0.0591015 
-0.0597386 
-0.0603719 
-0.0610015 
-0.0616274 
-0.0622494 
-0.0628676 
-0.0634819 
-0.0640923 
-0.0646988 
-0.0653013 
-0.0658997 
-0.0664941 
-0.0670843 
-0.0676705 
-0.0682524 
-0.0688302 
-0.0694037 
-0.0699729 
-0.0705378 
-0.0710983 
-0.0716545 
-0.0722062 
-0.0727535 
-0.0732963 
-0.0738346 
-0.0743683 
-0.0748975 
-0.075422 
-0.0759418 
-0.076457 
-0.0769675 
-0.0774732 
-0.0779741 
-0.0784702 
-0.0789615 
-0.0794479 
-0.0799294 
-0.080406 
-0.0808776 
-0.0813443 
-0.0818059 
-0.0822624 
-0.0827139 
-0.0831603 
-0.0836016 
-0.0840377 
-0.0844686 
-0.0848943 
-0.0853148 
-0.08573 
-0.0861399 
-0.0865445 
-0.0869438 
-0.0873377 
-0.0877262 
-0.0881093 
-0.088487 
-0.0888592 
-0.0892259 
-0.0895871 
-0.0899428 
-0.090293 
-0.0906376 
-0.0909766 
-0.0913099 
-0.0916377 
-0.0919598 
-0.0922762 
-0.092587 
-0.092892 
-0.0931913 
-0.0934848 
-0.0937726 
-0.0940546 
-0.0943308 
-0.0946012 
-0.0948657 
-0.0951244 
-0.0953772 
-0.0956241 
-0.0958652 
-0.0961003 
-0.0963295 
-0.0965528 
-0.0967701 
-0.0969814 
-0.0971868 
-0.0973861 
-0.0975795 
-0.0977668 
-0.0979481 
-0.0981234 
-0.0982926 
-0.0984557 
-0.0986128 
-0.0987638 
-0.0989087 
-0.0990475 
-0.0991802 
-0.0993068 
-0.0994272 
-0.0995415 
-0.0996497 
-0.0997518 
-0.0998476 
-0.0999374 
-0.100021 
-0.100098 
-0.10017 
-0.100235 
-0.100293 
-0.100346 
-0.100393 
-0.100433 
-0.100467 
-0.100495 
-0.100517 
-0.100532 
-0.100541 
-0.100544 
-8.90735e-11 
-0.000790756 
-0.00158146 
-0.00237207 
-0.00316253 
-0.00395279 
-0.00474281 
-0.00553253 
-0.00632191 
-0.0071109 
-0.00789945 
-0.00868751 
-0.00947504 
-0.010262 
-0.0110483 
-0.0118339 
-0.0126188 
-0.0134029 
-0.0141862 
-0.0149686 
-0.0157501 
-0.0165306 
-0.01731 
-0.0180885 
-0.0188658 
-0.0196419 
-0.0204168 
-0.0211905 
-0.0219628 
-0.0227338 
-0.0235034 
-0.0242715 
-0.0250382 
-0.0258033 
-0.0265668 
-0.0273286 
-0.0280888 
-0.0288472 
-0.0296039 
-0.0303587 
-0.0311117 
-0.0318627 
-0.0326118 
-0.0333588 
-0.0341038 
-0.0348467 
-0.0355875 
-0.036326 
-0.0370623 
-0.0377963 
-0.038528 
-0.0392573 
-0.0399842 
-0.0407086 
-0.0414305 
-0.0421498 
-0.0428666 
-0.0435807 
-0.0442921 
-0.0450007 
-0.0457066 
-0.0464097 
-0.0471099 
-0.0478072 
-0.0485016 
-0.0491929 
-0.0498812 
-0.0505665 
-0.0512486 
-0.0519276 
-0.0526033 
-0.0532758 
-0.0539451 
-0.054611 
-0.0552735 
-0.0559326 
-0.0565882 
-0.0572404 
-0.057889 
-0.0585341 
-0.0591756 
-0.0598134 
-0.0604475 
-0.0610779 
-0.0617045 
-0.0623273 
-0.0629462 
-0.0635613 
-0.0641725 
-0.0647796 
-0.0653828 
-0.065982 
-0.0665771 
-0.0671681 
-0.0677549 
-0.0683376 
-0.068916 
-0.0694902 
-0.0700601 
-0.0706257 
-0.0711869 
-0.0717437 
-0.0722961 
-0.0728441 
-0.0733875 
-0.0739265 
-0.0744608 
-0.0749906 
-0.0755157 
-0.0760362 
-0.076552 
-0.0770631 
-0.0775694 
-0.0780709 
-0.0785676 
-0.0790595 
-0.0795465 
-0.0800286 
-0.0805057 
-0.0809779 
-0.0814451 
-0.0819072 
-0.0823643 
-0.0828164 
-0.0832633 
-0.083705 
-0.0841417 
-0.0845731 
-0.0849993 
-0.0854203 
-0.085836 
-0.0862464 
-0.0866514 
-0.0870512 
-0.0874455 
-0.0878345 
-0.0882181 
-0.0885962 
-0.0889688 
-0.089336 
-0.0896976 
-0.0900538 
-0.0904043 
-0.0907493 
-0.0910887 
-0.0914225 
-0.0917506 
-0.0920731 
-0.0923899 
-0.092701 
-0.0930063 
-0.093306 
-0.0935999 
-0.093888 
-0.0941703 
-0.0944468 
-0.0947175 
-0.0949823 
-0.0952413 
-0.0954945 
-0.0957417 
-0.095983 
-0.0962184 
-0.0964479 
-0.0966714 
-0.0968889 
-0.0971005 
-0.0973061 
-0.0975057 
-0.0976993 
-0.0978868 
-0.0980683 
-0.0982438 
-0.0984132 
-0.0985765 
-0.0987338 
-0.098885 
-0.09903 
-0.099169 
-0.0993018 
-0.0994286 
-0.0995492 
-0.0996636 
-0.0997719 
-0.0998741 
-0.09997 
-0.10006 
-0.100144 
-0.100221 
-0.100292 
-0.100357 
-0.100416 
-0.100469 
-0.100516 
-0.100556 
-0.10059 
-0.100618 
-0.10064 
-0.100655 
-0.100665 
-0.100668 
-8.91933e-11 
-0.000791819 
-0.00158359 
-0.00237526 
-0.00316678 
-0.0039581 
-0.00474918 
-0.00553996 
-0.0063304 
-0.00712044 
-0.00791005 
-0.00869916 
-0.00948773 
-0.0102757 
-0.0110631 
-0.0118497 
-0.0126357 
-0.0134208 
-0.0142051 
-0.0149886 
-0.0157711 
-0.0165527 
-0.0173332 
-0.0181126 
-0.0188909 
-0.0196681 
-0.0204441 
-0.0212187 
-0.0219921 
-0.0227641 
-0.0235347 
-0.0243039 
-0.0250715 
-0.0258376 
-0.0266021 
-0.027365 
-0.0281262 
-0.0288856 
-0.0296433 
-0.0303991 
-0.031153 
-0.031905 
-0.0326551 
-0.0334031 
-0.0341491 
-0.0348929 
-0.0356346 
-0.0363742 
-0.0371114 
-0.0378464 
-0.038579 
-0.0393093 
-0.0400371 
-0.0407624 
-0.0414853 
-0.0422055 
-0.0429232 
-0.0436382 
-0.0443505 
-0.0450601 
-0.0457669 
-0.0464709 
-0.047172 
-0.0478702 
-0.0485655 
-0.0492577 
-0.0499469 
-0.050633 
-0.051316 
-0.0519959 
-0.0526725 
-0.0533459 
-0.0540159 
-0.0546827 
-0.055346 
-0.056006 
-0.0566625 
-0.0573155 
-0.057965 
-0.0586108 
-0.0592531 
-0.0598917 
-0.0605266 
-0.0611578 
-0.0617852 
-0.0624088 
-0.0630285 
-0.0636444 
-0.0642563 
-0.0648643 
-0.0654682 
-0.0660681 
-0.066664 
-0.0672557 
-0.0678433 
-0.0684267 
-0.0690058 
-0.0695807 
-0.0701513 
-0.0707176 
-0.0712796 
-0.0718371 
-0.0723902 
-0.0729388 
-0.0734829 
-0.0740225 
-0.0745575 
-0.075088 
-0.0756138 
-0.0761349 
-0.0766513 
-0.077163 
-0.0776699 
-0.0781721 
-0.0786694 
-0.0791619 
-0.0796495 
-0.0801322 
-0.0806099 
-0.0810826 
-0.0815504 
-0.0820131 
-0.0824708 
-0.0829234 
-0.0833708 
-0.0838131 
-0.0842503 
-0.0846822 
-0.085109 
-0.0855305 
-0.0859467 
-0.0863576 
-0.0867631 
-0.0871633 
-0.0875582 
-0.0879476 
-0.0883317 
-0.0887102 
-0.0890833 
-0.0894509 
-0.089813 
-0.0901696 
-0.0905205 
-0.090866 
-0.0912057 
-0.0915399 
-0.0918684 
-0.0921913 
-0.0925085 
-0.0928199 
-0.0931257 
-0.0934257 
-0.0937199 
-0.0940084 
-0.094291 
-0.0945679 
-0.0948389 
-0.0951041 
-0.0953634 
-0.0956168 
-0.0958643 
-0.0961059 
-0.0963416 
-0.0965713 
-0.0967951 
-0.0970129 
-0.0972247 
-0.0974306 
-0.0976304 
-0.0978242 
-0.098012 
-0.0981937 
-0.0983694 
-0.098539 
-0.0987025 
-0.09886 
-0.0990113 
-0.0991566 
-0.0992957 
-0.0994287 
-0.0995556 
-0.0996763 
-0.0997909 
-0.0998993 
-0.100002 
-0.100098 
-0.100188 
-0.100271 
-0.100349 
-0.10042 
-0.100486 
-0.100544 
-0.100597 
-0.100644 
-0.100684 
-0.100718 
-0.100746 
-0.100768 
-0.100784 
-0.100793 
-0.100796 
-8.93193e-11 
-0.000792938 
-0.00158582 
-0.00237861 
-0.00317124 
-0.00396368 
-0.00475587 
-0.00554777 
-0.00633931 
-0.00713047 
-0.00792118 
-0.0087114 
-0.00950108 
-0.0102902 
-0.0110786 
-0.0118664 
-0.0126534 
-0.0134397 
-0.0142251 
-0.0150096 
-0.0157932 
-0.0165759 
-0.0173575 
-0.018138 
-0.0189174 
-0.0196956 
-0.0204727 
-0.0212484 
-0.0220229 
-0.0227959 
-0.0235676 
-0.0243378 
-0.0251065 
-0.0258737 
-0.0266393 
-0.0274032 
-0.0281654 
-0.0289259 
-0.0296846 
-0.0304414 
-0.0311964 
-0.0319494 
-0.0327005 
-0.0334496 
-0.0341966 
-0.0349414 
-0.0356841 
-0.0364247 
-0.0371629 
-0.0378989 
-0.0386325 
-0.0393638 
-0.0400926 
-0.0408189 
-0.0415427 
-0.042264 
-0.0429826 
-0.0436986 
-0.0444119 
-0.0451224 
-0.0458302 
-0.0465351 
-0.0472371 
-0.0479363 
-0.0486324 
-0.0493256 
-0.0500157 
-0.0507028 
-0.0513867 
-0.0520674 
-0.052745 
-0.0534192 
-0.0540902 
-0.0547578 
-0.0554221 
-0.0560829 
-0.0567403 
-0.0573941 
-0.0580444 
-0.0586912 
-0.0593343 
-0.0599737 
-0.0606095 
-0.0612415 
-0.0618697 
-0.0624941 
-0.0631147 
-0.0637314 
-0.0643441 
-0.0649528 
-0.0655576 
-0.0661583 
-0.0667549 
-0.0673474 
-0.0679357 
-0.0685199 
-0.0690998 
-0.0696754 
-0.0702468 
-0.0708138 
-0.0713765 
-0.0719347 
-0.0724885 
-0.0730379 
-0.0735827 
-0.074123 
-0.0746587 
-0.0751898 
-0.0757163 
-0.076238 
-0.0767551 
-0.0772675 
-0.0777751 
-0.0782779 
-0.0787758 
-0.0792689 
-0.0797571 
-0.0802404 
-0.0807188 
-0.0811921 
-0.0816605 
-0.0821238 
-0.082582 
-0.0830352 
-0.0834832 
-0.0839261 
-0.0843638 
-0.0847963 
-0.0852235 
-0.0856455 
-0.0860623 
-0.0864737 
-0.0868798 
-0.0872805 
-0.0876758 
-0.0880658 
-0.0884503 
-0.0888293 
-0.0892029 
-0.0895709 
-0.0899335 
-0.0902905 
-0.0906419 
-0.0909877 
-0.0913279 
-0.0916625 
-0.0919915 
-0.0923147 
-0.0926323 
-0.0929441 
-0.0932502 
-0.0935506 
-0.0938452 
-0.094134 
-0.094417 
-0.0946942 
-0.0949656 
-0.0952311 
-0.0954907 
-0.0957444 
-0.0959922 
-0.0962341 
-0.0964701 
-0.0967001 
-0.0969242 
-0.0971422 
-0.0973543 
-0.0975604 
-0.0977605 
-0.0979545 
-0.0981425 
-0.0983245 
-0.0985004 
-0.0986702 
-0.0988339 
-0.0989915 
-0.0991431 
-0.0992885 
-0.0994278 
-0.099561 
-0.099688 
-0.0998089 
-0.0999236 
-0.100032 
-0.100135 
-0.100231 
-0.100321 
-0.100405 
-0.100482 
-0.100554 
-0.100619 
-0.100678 
-0.100731 
-0.100778 
-0.100818 
-0.100852 
-0.10088 
-0.100902 
-0.100918 
-0.100927 
-0.10093 
-8.94519e-11 
-0.000794114 
-0.00158818 
-0.00238213 
-0.00317594 
-0.00396955 
-0.00476291 
-0.00555598 
-0.00634869 
-0.00714101 
-0.00793289 
-0.00872427 
-0.00951511 
-0.0103054 
-0.011095 
-0.0118839 
-0.0126721 
-0.0134595 
-0.014246 
-0.0150317 
-0.0158165 
-0.0166003 
-0.017383 
-0.0181647 
-0.0189452 
-0.0197246 
-0.0205027 
-0.0212796 
-0.0220552 
-0.0228294 
-0.0236022 
-0.0243735 
-0.0251433 
-0.0259116 
-0.0266782 
-0.0274432 
-0.0282066 
-0.0289681 
-0.0297279 
-0.0304859 
-0.0312419 
-0.031996 
-0.0327482 
-0.0334983 
-0.0342464 
-0.0349923 
-0.0357361 
-0.0364776 
-0.037217 
-0.037954 
-0.0386886 
-0.0394209 
-0.0401508 
-0.0408781 
-0.041603 
-0.0423252 
-0.0430449 
-0.0437619 
-0.0444762 
-0.0451877 
-0.0458964 
-0.0466024 
-0.0473054 
-0.0480055 
-0.0487027 
-0.0493968 
-0.0500879 
-0.0507759 
-0.0514607 
-0.0521424 
-0.0528209 
-0.0534961 
-0.054168 
-0.0548365 
-0.0555017 
-0.0561635 
-0.0568217 
-0.0574765 
-0.0581277 
-0.0587753 
-0.0594193 
-0.0600597 
-0.0606963 
-0.0613292 
-0.0619582 
-0.0625835 
-0.0632049 
-0.0638224 
-0.064436 
-0.0650455 
-0.0656511 
-0.0662526 
-0.06685 
-0.0674433 
-0.0680325 
-0.0686174 
-0.0691981 
-0.0697745 
-0.0703467 
-0.0709144 
-0.0714779 
-0.0720368 
-0.0725914 
-0.0731415 
-0.073687 
-0.074228 
-0.0747644 
-0.0752963 
-0.0758234 
-0.0763459 
-0.0768637 
-0.0773767 
-0.077885 
-0.0783884 
-0.0788871 
-0.0793808 
-0.0798697 
-0.0803536 
-0.0808325 
-0.0813065 
-0.0817755 
-0.0822394 
-0.0826983 
-0.083152 
-0.0836006 
-0.0840441 
-0.0844823 
-0.0849154 
-0.0853432 
-0.0857658 
-0.086183 
-0.086595 
-0.0870016 
-0.0874028 
-0.0877987 
-0.0881891 
-0.0885741 
-0.0889536 
-0.0893277 
-0.0896962 
-0.0900592 
-0.0904167 
-0.0907685 
-0.0911148 
-0.0914555 
-0.0917905 
-0.0921198 
-0.0924435 
-0.0927615 
-0.0930737 
-0.0933802 
-0.093681 
-0.093976 
-0.0942651 
-0.0945485 
-0.094826 
-0.0950977 
-0.0953636 
-0.0956235 
-0.0958775 
-0.0961257 
-0.0963679 
-0.0966042 
-0.0968345 
-0.0970588 
-0.0972772 
-0.0974895 
-0.0976959 
-0.0978962 
-0.0980905 
-0.0982787 
-0.0984609 
-0.098637 
-0.098807 
-0.0989709 
-0.0991288 
-0.0992805 
-0.0994261 
-0.0995656 
-0.0996989 
-0.0998261 
-0.0999471 
-0.100062 
-0.100171 
-0.100273 
-0.10037 
-0.10046 
-0.100544 
-0.100621 
-0.100693 
-0.100758 
-0.100817 
-0.10087 
-0.100917 
-0.100958 
-0.100992 
-0.10102 
-0.101042 
-0.101057 
-0.101067 
-0.10107 
-8.95913e-11 
-0.000795351 
-0.00159065 
-0.00238584 
-0.00318088 
-0.00397573 
-0.00477032 
-0.00556461 
-0.00635855 
-0.0071521 
-0.0079452 
-0.0087378 
-0.00952986 
-0.0103213 
-0.0111122 
-0.0119023 
-0.0126917 
-0.0134803 
-0.0142681 
-0.015055 
-0.0158409 
-0.0166259 
-0.0174098 
-0.0181927 
-0.0189744 
-0.019755 
-0.0205343 
-0.0213124 
-0.0220891 
-0.0228645 
-0.0236384 
-0.0244109 
-0.0251819 
-0.0259513 
-0.0267192 
-0.0274853 
-0.0282498 
-0.0290125 
-0.0297734 
-0.0305325 
-0.0312897 
-0.032045 
-0.0327982 
-0.0335495 
-0.0342986 
-0.0350457 
-0.0357906 
-0.0365332 
-0.0372737 
-0.0380118 
-0.0387475 
-0.0394809 
-0.0402118 
-0.0409402 
-0.0416661 
-0.0423895 
-0.0431102 
-0.0438282 
-0.0445436 
-0.0452561 
-0.0459659 
-0.0466729 
-0.0473769 
-0.0480781 
-0.0487762 
-0.0494714 
-0.0501635 
-0.0508525 
-0.0515383 
-0.052221 
-0.0529005 
-0.0535766 
-0.0542495 
-0.054919 
-0.0555851 
-0.0562478 
-0.0569071 
-0.0575628 
-0.0582149 
-0.0588635 
-0.0595084 
-0.0601496 
-0.0607872 
-0.0614209 
-0.0620509 
-0.0626771 
-0.0632993 
-0.0639177 
-0.0645321 
-0.0651426 
-0.065749 
-0.0663514 
-0.0669496 
-0.0675438 
-0.0681337 
-0.0687195 
-0.069301 
-0.0698782 
-0.0704511 
-0.0710197 
-0.0715839 
-0.0721437 
-0.072699 
-0.0732498 
-0.0737961 
-0.0743379 
-0.0748751 
-0.0754076 
-0.0759355 
-0.0764587 
-0.0769772 
-0.0774909 
-0.0779999 
-0.078504 
-0.0790033 
-0.0794977 
-0.0799873 
-0.0804718 
-0.0809515 
-0.0814261 
-0.0818957 
-0.0823602 
-0.0828197 
-0.0832741 
-0.0837233 
-0.0841673 
-0.0846062 
-0.0850398 
-0.0854682 
-0.0858913 
-0.0863092 
-0.0867217 
-0.0871288 
-0.0875306 
-0.087927 
-0.0883179 
-0.0887034 
-0.0890835 
-0.089458 
-0.089827 
-0.0901905 
-0.0905484 
-0.0909008 
-0.0912475 
-0.0915886 
-0.0919241 
-0.0922538 
-0.0925779 
-0.0928963 
-0.093209 
-0.0935159 
-0.093817 
-0.0941124 
-0.094402 
-0.0946857 
-0.0949636 
-0.0952356 
-0.0955018 
-0.0957621 
-0.0960165 
-0.0962649 
-0.0965074 
-0.096744 
-0.0969746 
-0.0971992 
-0.0974179 
-0.0976305 
-0.0978371 
-0.0980377 
-0.0982322 
-0.0984207 
-0.0986031 
-0.0987795 
-0.0989497 
-0.0991138 
-0.0992719 
-0.0994238 
-0.0995696 
-0.0997092 
-0.0998427 
-0.0999701 
-0.100091 
-0.100206 
-0.100315 
-0.100418 
-0.100514 
-0.100604 
-0.100689 
-0.100766 
-0.100838 
-0.100903 
-0.100963 
-0.101016 
-0.101062 
-0.101103 
-0.101137 
-0.101165 
-0.101187 
-0.101203 
-0.101212 
-0.101215 
-8.97379e-11 
-0.000796652 
-0.00159325 
-0.00238974 
-0.00318608 
-0.00398222 
-0.0047781 
-0.00557368 
-0.00636892 
-0.00716375 
-0.00795814 
-0.00875203 
-0.00954537 
-0.0103381 
-0.0111302 
-0.0119216 
-0.0127123 
-0.0135022 
-0.0142912 
-0.0150794 
-0.0158666 
-0.0166528 
-0.017438 
-0.0182221 
-0.0190051 
-0.0197869 
-0.0205675 
-0.0213468 
-0.0221247 
-0.0229013 
-0.0236765 
-0.0244503 
-0.0252225 
-0.0259931 
-0.0267621 
-0.0275295 
-0.0282952 
-0.0290591 
-0.0298212 
-0.0305815 
-0.0313399 
-0.0320963 
-0.0328507 
-0.0336032 
-0.0343535 
-0.0351017 
-0.0358478 
-0.0365916 
-0.0373331 
-0.0380724 
-0.0388093 
-0.0395438 
-0.0402758 
-0.0410054 
-0.0417324 
-0.0424569 
-0.0431787 
-0.0438978 
-0.0446142 
-0.0453279 
-0.0460388 
-0.0467468 
-0.047452 
-0.0481542 
-0.0488534 
-0.0495496 
-0.0502427 
-0.0509328 
-0.0516197 
-0.0523034 
-0.0529838 
-0.053661 
-0.0543349 
-0.0550054 
-0.0556726 
-0.0563362 
-0.0569964 
-0.0576531 
-0.0583062 
-0.0589558 
-0.0596016 
-0.0602438 
-0.0608823 
-0.061517 
-0.0621479 
-0.062775 
-0.0633982 
-0.0640175 
-0.0646328 
-0.0652441 
-0.0658515 
-0.0664547 
-0.0670538 
-0.0676488 
-0.0682397 
-0.0688263 
-0.0694086 
-0.0699867 
-0.0705604 
-0.0711298 
-0.0716948 
-0.0722554 
-0.0728115 
-0.0733632 
-0.0739102 
-0.0744528 
-0.0749907 
-0.075524 
-0.0760527 
-0.0765766 
-0.0770958 
-0.0776103 
-0.07812 
-0.0786248 
-0.0791249 
-0.07962 
-0.0801102 
-0.0805954 
-0.0810757 
-0.081551 
-0.0820213 
-0.0824865 
-0.0829466 
-0.0834016 
-0.0838514 
-0.0842961 
-0.0847356 
-0.0851698 
-0.0855988 
-0.0860225 
-0.0864409 
-0.086854 
-0.0872617 
-0.087664 
-0.0880609 
-0.0884524 
-0.0888385 
-0.089219 
-0.0895941 
-0.0899636 
-0.0903276 
-0.090686 
-0.0910388 
-0.091386 
-0.0917276 
-0.0920635 
-0.0923937 
-0.0927182 
-0.0930371 
-0.0933501 
-0.0936575 
-0.093959 
-0.0942548 
-0.0945447 
-0.0948288 
-0.0951071 
-0.0953795 
-0.095646 
-0.0959067 
-0.0961614 
-0.0964102 
-0.096653 
-0.0968899 
-0.0971208 
-0.0973457 
-0.0975647 
-0.0977776 
-0.0979845 
-0.0981853 
-0.0983801 
-0.0985688 
-0.0987515 
-0.098928 
-0.0990985 
-0.0992629 
-0.0994211 
-0.0995732 
-0.0997192 
-0.099859 
-0.0999927 
-0.10012 
-0.100242 
-0.100357 
-0.100466 
-0.100568 
-0.100665 
-0.100755 
-0.10084 
-0.100918 
-0.100989 
-0.101055 
-0.101114 
-0.101167 
-0.101214 
-0.101255 
-0.101289 
-0.101317 
-0.101339 
-0.101355 
-0.101364 
-0.101367 
-8.98921e-11 
-0.000798021 
-0.00159598 
-0.00239384 
-0.00319154 
-0.00398904 
-0.00478629 
-0.00558323 
-0.00637982 
-0.007176 
-0.00797174 
-0.00876698 
-0.00956167 
-0.0103558 
-0.0111492 
-0.0119419 
-0.012734 
-0.0135252 
-0.0143155 
-0.015105 
-0.0158935 
-0.0166811 
-0.0174676 
-0.018253 
-0.0190373 
-0.0198204 
-0.0206023 
-0.0213829 
-0.0221622 
-0.0229401 
-0.0237165 
-0.0244915 
-0.025265 
-0.0260369 
-0.0268072 
-0.0275759 
-0.0283428 
-0.029108 
-0.0298714 
-0.0306329 
-0.0313925 
-0.0321502 
-0.0329059 
-0.0336595 
-0.0344111 
-0.0351605 
-0.0359078 
-0.0366528 
-0.0373955 
-0.038136 
-0.0388741 
-0.0396098 
-0.040343 
-0.0410737 
-0.0418019 
-0.0425275 
-0.0432505 
-0.0439708 
-0.0446884 
-0.0454032 
-0.0461152 
-0.0468243 
-0.0475306 
-0.0482339 
-0.0489342 
-0.0496315 
-0.0503258 
-0.0510169 
-0.0517049 
-0.0523897 
-0.0530712 
-0.0537495 
-0.0544244 
-0.055096 
-0.0557641 
-0.0564288 
-0.0570901 
-0.0577478 
-0.0584019 
-0.0590524 