VARIABLES = "x", "y", "density", "u-vel", "v-vel", "energy", "pressure", "temperature", "a", "mach", "e"
ZONE T="Flow Field", I=101, J=51, F=BLOCK
VARLOCATION=([3-11]=CELLCENTERED)
-0.1 
-0.0999877 
-0.0999507 
-0.099889 
-0.0998027 
-0.0996917 
-0.0995562 
-0.0993961 
-0.0992115 
-0.0990024 
-0.0987688 
-0.0985109 
-0.0982287 
-0.0979223 
-0.0975917 
-0.097237 
-0.0968583 
-0.0964557 
-0.0960294 
-0.0955793 
-0.0951057 
-0.0946085 
-0.0940881 
-0.0935444 
-0.0929776 
-0.092388 
-0.0917755 
-0.0911403 
-0.0904827 
-0.0898028 
-0.0891007 
-0.0883766 
-0.0876307 
-0.0868632 
-0.0860742 
-0.085264 
-0.0844328 
-0.0835807 
-0.0827081 
-0.081815 
-0.0809017 
-0.0799685 
-0.0790155 
-0.078043 
-0.0770513 
-0.0760406 
-0.0750111 
-0.0739631 
-0.0728969 
-0.0718126 
-0.0707107 
-0.0695913 
-0.0684547 
-0.0673013 
-0.0661312 
-0.0649448 
-0.0637424 
-0.0625243 
-0.0612907 
-0.060042 
-0.0587785 
-0.0575005 
-0.0562083 
-0.0549023 
-0.0535827 
-0.0522499 
-0.0509041 
-0.0495459 
-0.0481754 
-0.046793 
-0.045399 
-0.0439939 
-0.0425779 
-0.0411514 
-0.0397148 
-0.0382683 
-0.0368125 
-0.0353475 
-0.0338738 
-0.0323917 
-0.0309017 
-0.029404 
-0.0278991 
-0.0263873 
-0.024869 
-0.0233445 
-0.0218143 
-0.0202787 
-0.0187381 
-0.0171929 
-0.0156434 
-0.0140901 
-0.0125333 
-0.0109734 
-0.00941083 
-0.00784591 
-0.00627905 
-0.00471065 
-0.00314108 
-0.00157073 
2.94897e-11 
-0.101 
-0.100988 
-0.10095 
-0.100888 
-0.100801 
-0.100689 
-0.100552 
-0.10039 
-0.100204 
-0.0999924 
-0.0997565 
-0.099496 
-0.099211 
-0.0989015 
-0.0985676 
-0.0982094 
-0.0978269 
-0.0974203 
-0.0969897 
-0.0965351 
-0.0960567 
-0.0955546 
-0.095029 
-0.0944798 
-0.0939074 
-0.0933118 
-0.0926932 
-0.0920517 
-0.0913875 
-0.0907008 
-0.0899917 
-0.0892603 
-0.088507 
-0.0877318 
-0.0869349 
-0.0861167 
-0.0852771 
-0.0844165 
-0.0835351 
-0.0826331 
-0.0817107 
-0.0807682 
-0.0798057 
-0.0788235 
-0.0778218 
-0.076801 
-0.0757612 
-0.0747027 
-0.0736258 
-0.0725308 
-0.0714178 
-0.0702872 
-0.0691393 
-0.0679743 
-0.0667925 
-0.0655943 
-0.0643798 
-0.0631495 
-0.0619036 
-0.0606424 
-0.0593663 
-0.0580755 
-0.0567704 
-0.0554513 
-0.0541185 
-0.0527724 
-0.0514132 
-0.0500413 
-0.0486571 
-0.0472609 
-0.045853 
-0.0444339 
-0.0430037 
-0.041563 
-0.0401119 
-0.038651 
-0.0371806 
-0.035701 
-0.0342125 
-0.0327157 
-0.0312107 
-0.0296981 
-0.0281781 
-0.0266512 
-0.0251177 
-0.023578 
-0.0220325 
-0.0204815 
-0.0189255 
-0.0173648 
-0.0157999 
-0.014231 
-0.0126587 
-0.0110832 
-0.00950494 
-0.00792437 
-0.00634184 
-0.00475775 
-0.00317249 
-0.00158644 
2.97846e-11 
-0.102039 
-0.102027 
-0.101989 
-0.101926 
-0.101838 
-0.101725 
-0.101587 
-0.101423 
-0.101235 
-0.101022 
-0.100784 
-0.10052 
-0.100233 
-0.09992 
-0.0995827 
-0.0992209 
-0.0988346 
-0.098424 
-0.097989 
-0.0975299 
-0.0970467 
-0.0965396 
-0.0960087 
-0.0954541 
-0.0948759 
-0.0942743 
-0.0936495 
-0.0930016 
-0.0923307 
-0.091637 
-0.0909208 
-0.0901821 
-0.0894211 
-0.0886381 
-0.0878332 
-0.0870067 
-0.0861587 
-0.0852894 
-0.0843991 
-0.0834879 
-0.0825562 
-0.081604 
-0.0806318 
-0.0796396 
-0.0786278 
-0.0775966 
-0.0765462 
-0.075477 
-0.0743891 
-0.0732829 
-0.0721586 
-0.0710164 
-0.0698568 
-0.0686799 
-0.067486 
-0.0662755 
-0.0650486 
-0.0638057 
-0.062547 
-0.0612729 
-0.0599837 
-0.0586797 
-0.0573611 
-0.0560284 
-0.0546819 
-0.0533219 
-0.0519487 
-0.0505627 
-0.0491642 
-0.0477536 
-0.0463312 
-0.0448973 
-0.0434524 
-0.0419967 
-0.0405306 
-0.0390546 
-0.0375689 
-0.0360739 
-0.03457 
-0.0330576 
-0.031537 
-0.0300086 
-0.0284728 
-0.02693 
-0.0253805 
-0.0238248 
-0.0222632 
-0.020696 
-0.0191238 
-0.0175468 
-0.0159655 
-0.0143802 
-0.0127914 
-0.0111994 
-0.00960465 
-0.00800752 
-0.0064084 
-0.0048077 
-0.0032058 
-0.0016031 
3.00974e-11 
-0.10312 
-0.103107 
-0.103069 
-0.103005 
-0.102917 
-0.102802 
-0.102663 
-0.102498 
-0.102307 
-0.102092 
-0.101851 
-0.101586 
-0.101295 
-0.100979 
-0.100639 
-0.100273 
-0.0998831 
-0.0994684 
-0.0990291 
-0.0985653 
-0.0980773 
-0.0975651 
-0.0970288 
-0.0964687 
-0.0958847 
-0.095277 
-0.0946459 
-0.0939914 
-0.0933138 
-0.0926131 
-0.0918896 
-0.0911434 
-0.0903747 
-0.0895838 
-0.0887707 
-0.0879357 
-0.087079 
-0.0862009 
-0.0853015 
-0.084381 
-0.0834397 
-0.0824778 
-0.0814955 
-0.0804931 
-0.0794709 
-0.078429 
-0.0773678 
-0.0762875 
-0.0751883 
-0.0740706 
-0.0729346 
-0.0717806 
-0.0706088 
-0.0694196 
-0.0682133 
-0.0669901 
-0.0657504 
-0.0644944 
-0.0632225 
-0.061935 
-0.0606322 
-0.0593144 
-0.0579819 
-0.0566351 
-0.0552743 
-0.0538999 
-0.0525121 
-0.0511114 
-0.049698 
-0.0482723 
-0.0468347 
-0.0453855 
-0.0439251 
-0.0424538 
-0.0409721 
-0.0394802 
-0.0379785 
-0.0364674 
-0.0349473 
-0.0334186 
-0.0318815 
-0.0303366 
-0.0287842 
-0.0272247 
-0.0256584 
-0.0240857 
-0.0225071 
-0.0209229 
-0.0193335 
-0.0177393 
-0.0161408 
-0.0145382 
-0.012932 
-0.0113225 
-0.0097103 
-0.00809564 
-0.00647896 
-0.00486065 
-0.00324113 
-0.00162077 
3.04294e-11 
-0.104243 
-0.10423 
-0.104192 
-0.104127 
-0.104038 
-0.103922 
-0.103781 
-0.103615 
-0.103422 
-0.103205 
-0.102962 
-0.102694 
-0.1024 
-0.102081 
-0.101737 
-0.101368 
-0.100974 
-0.100555 
-0.100111 
-0.099643 
-0.0991501 
-0.0986328 
-0.0980911 
-0.0975253 
-0.0969354 
-0.0963217 
-0.0956842 
-0.0950231 
-0.0943385 
-0.0936307 
-0.0928998 
-0.092146 
-0.0913695 
-0.0905705 
-0.089749 
-0.0889055 
-0.08804 
-0.0871528 
-0.0862441 
-0.085314 
-0.084363 
-0.0833911 
-0.0823986 
-0.0813857 
-0.0803528 
-0.0793 
-0.0782276 
-0.0771359 
-0.0760252 
-0.0748956 
-0.0737476 
-0.0725813 
-0.0713971 
-0.0701952 
-0.068976 
-0.0677398 
-0.0664867 
-0.0652173 
-0.0639317 
-0.0626302 
-0.0613133 
-0.0599813 
-0.0586343 
-0.0572729 
-0.0558973 
-0.0545078 
-0.0531049 
-0.0516888 
-0.0502598 
-0.0488185 
-0.047365 
-0.0458998 
-0.0444233 
-0.0429357 
-0.0414374 
-0.0399289 
-0.0384105 
-0.0368826 
-0.0353455 
-0.0337996 
-0.0322453 
-0.0306831 
-0.0291132 
-0.027536 
-0.025952 
-0.0243616 
-0.0227651 
-0.0211629 
-0.0195554 
-0.0179431 
-0.0163263 
-0.0147054 
-0.0130808 
-0.011453 
-0.00982223 
-0.00818903 
-0.00655375 
-0.0049168 
-0.00327859 
-0.00163952 
3.07816e-11 
-0.10541 
-0.105397 
-0.105358 
-0.105294 
-0.105203 
-0.105086 
-0.104944 
-0.104776 
-0.104582 
-0.104362 
-0.104117 
-0.103846 
-0.103549 
-0.103227 
-0.10288 
-0.102507 
-0.102109 
-0.101686 
-0.101238 
-0.100765 
-0.100267 
-0.0997444 
-0.0991973 
-0.0986257 
-0.0980299 
-0.09741 
-0.096766 
-0.0960982 
-0.0954067 
-0.0946917 
-0.0939533 
-0.0931918 
-0.0924073 
-0.0916 
-0.0907701 
-0.0899178 
-0.0890433 
-0.0881468 
-0.0872286 
-0.0862889 
-0.0853278 
-0.0843457 
-0.0833427 
-0.0823192 
-0.0812753 
-0.0802113 
-0.0791275 
-0.0780241 
-0.0769014 
-0.0757597 
-0.0745993 
-0.0734204 
-0.0722233 
-0.0710084 
-0.0697759 
-0.0685261 
-0.0672593 
-0.0659759 
-0.0646761 
-0.0633603 
-0.0620288 
-0.0606819 
-0.05932 
-0.0579433 
-0.0565523 
-0.0551472 
-0.0537284 
-0.0522963 
-0.0508513 
-0.0493935 
-0.0479235 
-0.0464416 
-0.0449482 
-0.0434435 
-0.0419281 
-0.0404022 
-0.0388663 
-0.0373206 
-0.0357657 
-0.0342019 
-0.0326295 
-0.031049 
-0.0294607 
-0.027865 
-0.0262624 
-0.0246533 
-0.0230379 
-0.0214168 
-0.0197902 
-0.0181588 
-0.0165227 
-0.0148825 
-0.0132385 
-0.0115911 
-0.00994084 
-0.008288 
-0.00663303 
-0.00497633 
-0.00331832 
-0.00165941 
3.11553e-11 
-0.106623 
-0.10661 
-0.106571 
-0.106506 
-0.106414 
-0.106296 
-0.106153 
-0.105983 
-0.105787 
-0.105565 
-0.105317 
-0.105044 
-0.104744 
-0.104419 
-0.104068 
-0.103692 
-0.10329 
-0.102863 
-0.10241 
-0.101932 
-0.101429 
-0.100902 
-0.100349 
-0.0997718 
-0.09917 
-0.0985437 
-0.0978932 
-0.0972186 
-0.0965201 
-0.0957977 
-0.0950518 
-0.0942824 
-0.0934898 
-0.0926741 
-0.0918356 
-0.0909744 
-0.0900908 
-0.0891849 
-0.0882571 
-0.0873074 
-0.0863361 
-0.0853435 
-0.0843299 
-0.0832953 
-0.0822402 
-0.0811647 
-0.0800692 
-0.0789538 
-0.0778189 
-0.0766647 
-0.0754916 
-0.0742997 
-0.0730894 
-0.0718609 
-0.0706147 
-0.0693509 
-0.06807 
-0.0667721 
-0.0654576 
-0.0641269 
-0.0627803 
-0.061418 
-0.0600405 
-0.058648 
-0.057241 
-0.0558197 
-0.0543845 
-0.0529357 
-0.0514738 
-0.049999 
-0.0485117 
-0.0470124 
-0.0455013 
-0.0439788 
-0.0424454 
-0.0409013 
-0.039347 
-0.0377828 
-0.0362092 
-0.0346265 
-0.0330351 
-0.0314354 
-0.0298278 
-0.0282127 
-0.0265905 
-0.0249616 
-0.0233264 
-0.0216853 
-0.0200387 
-0.018387 
-0.0167306 
-0.0150699 
-0.0134054 
-0.0117375 
-0.0100665 
-0.00839288 
-0.00671706 
-0.00503945 
-0.00336046 
-0.0016805 
3.15518e-11 
-0.107885 
-0.107871 
-0.107832 
-0.107766 
-0.107673 
-0.107554 
-0.107409 
-0.107238 
-0.10704 
-0.106816 
-0.106566 
-0.106289 
-0.105987 
-0.105659 
-0.105304 
-0.104924 
-0.104518 
-0.104087 
-0.10363 
-0.103147 
-0.10264 
-0.102107 
-0.101548 
-0.100965 
-0.100357 
-0.0997249 
-0.0990678 
-0.0983863 
-0.0976806 
-0.0969509 
-0.0961972 
-0.0954199 
-0.0946191 
-0.0937949 
-0.0929477 
-0.0920774 
-0.0911845 
-0.090269 
-0.0893313 
-0.0883715 
-0.0873898 
-0.0863866 
-0.0853619 
-0.0843162 
-0.0832496 
-0.0821623 
-0.0810548 
-0.0799271 
-0.0787796 
-0.0776126 
-0.0764263 
-0.075221 
-0.0739971 
-0.0727548 
-0.0714944 
-0.0702162 
-0.0689205 
-0.0676077 
-0.0662781 
-0.0649319 
-0.0635696 
-0.0621914 
-0.0607977 
-0.0593889 
-0.0579652 
-0.056527 
-0.0550747 
-0.0536086 
-0.052129 
-0.0506365 
-0.0491312 
-0.0476136 
-0.0460841 
-0.044543 
-0.0429907 
-0.0414276 
-0.039854 
-0.0382705 
-0.0366772 
-0.0350747 
-0.0334634 
-0.0318436 
-0.0302157 
-0.0285801 
-0.0269373 
-0.0252876 
-0.0236315 
-0.0219693 
-0.0203015 
-0.0186285 
-0.0169507 
-0.0152684 
-0.0135823 
-0.0118925 
-0.0101996 
-0.00850404 
-0.00680615 
-0.00510637 
-0.00340514 
-0.00170288 
3.19724e-11 
-0.109196 
-0.109182 
-0.109142 
-0.109075 
-0.108982 
-0.108862 
-0.108716 
-0.108542 
-0.108343 
-0.108117 
-0.107864 
-0.107585 
-0.10728 
-0.106948 
-0.10659 
-0.106207 
-0.105797 
-0.105361 
-0.104899 
-0.104412 
-0.103899 
-0.103361 
-0.102797 
-0.102208 
-0.101594 
-0.100955 
-0.100292 
-0.0996032 
-0.0988903 
-0.0981531 
-0.0973917 
-0.0966063 
-0.0957972 
-0.0949644 
-0.0941082 
-0.0932288 
-0.0923264 
-0.0914012 
-0.0904534 
-0.0894833 
-0.088491 
-0.0874768 
-0.086441 
-0.0853838 
-0.0843054 
-0.0832061 
-0.0820862 
-0.0809459 
-0.0797855 
-0.0786053 
-0.0774055 
-0.0761865 
-0.0749485 
-0.0736919 
-0.0724169 
-0.0711238 
-0.069813 
-0.0684848 
-0.0671394 
-0.0657773 
-0.0643987 
-0.063004 
-0.0615935 
-0.0601676 
-0.0587266 
-0.0572709 
-0.0558008 
-0.0543166 
-0.0528188 
-0.0513077 
-0.0497836 
-0.048247 
-0.0466982 
-0.0451376 
-0.0435656 
-0.0419826 
-0.0403889 
-0.038785 
-0.0371712 
-0.0355479 
-0.0339156 
-0.0322746 
-0.0306254 
-0.0289683 
-0.0273038 
-0.0256323 
-0.0239541 
-0.0222697 
-0.0205796 
-0.0188841 
-0.0171836 
-0.0154786 
-0.0137695 
-0.0120567 
-0.0103407 
-0.00862185 
-0.00690058 
-0.00517733 
-0.00345253 
-0.00172661 
3.24187e-11 
-0.110558 
-0.110545 
-0.110504 
-0.110437 
-0.110343 
-0.110222 
-0.110074 
-0.109899 
-0.109697 
-0.109469 
-0.109214 
-0.108932 
-0.108624 
-0.108289 
-0.107928 
-0.107541 
-0.107127 
-0.106687 
-0.106221 
-0.105729 
-0.105211 
-0.104667 
-0.104098 
-0.103503 
-0.102883 
-0.102237 
-0.101567 
-0.100871 
-0.100151 
-0.0994064 
-0.0986372 
-0.0978437 
-0.0970261 
-0.0961846 
-0.0953193 
-0.0944306 
-0.0935186 
-0.0925835 
-0.0916255 
-0.0906448 
-0.0896417 
-0.0886164 
-0.0875692 
-0.0865002 
-0.0854098 
-0.0842982 
-0.0831657 
-0.0820124 
-0.0808388 
-0.079645 
-0.0784314 
-0.0771982 
-0.0759458 
-0.0746744 
-0.0733843 
-0.0720759 
-0.0707494 
-0.0694052 
-0.0680436 
-0.066665 
-0.0652696 
-0.0638578 
-0.0624299 
-0.0609863 
-0.0595273 
-0.0580533 
-0.0565646 
-0.0550617 
-0.0535448 
-0.0520143 
-0.0504707 
-0.0489142 
-0.0473453 
-0.0457644 
-0.0441718 
-0.0425679 
-0.0409531 
-0.0393278 
-0.0376925 
-0.0360475 
-0.0343931 
-0.0327299 
-0.0310583 
-0.0293786 
-0.0276912 
-0.0259967 
-0.0242953 
-0.0225875 
-0.0208738 
-0.0191546 
-0.0174302 
-0.0157011 
-0.0139678 
-0.0122307 
-0.0104902 
-0.00874669 
-0.00700067 
-0.00525256 
-0.00350279 
-0.00175179 
3.28923e-11 
-0.111974 
-0.111961 
-0.11192 
-0.111852 
-0.111757 
-0.111635 
-0.111485 
-0.111309 
-0.111105 
-0.110875 
-0.110618 
-0.110333 
-0.110022 
-0.109684 
-0.109319 
-0.108928 
-0.10851 
-0.108066 
-0.107596 
-0.107099 
-0.106576 
-0.106027 
-0.105452 
-0.104851 
-0.104225 
-0.103573 
-0.102896 
-0.102193 
-0.101466 
-0.100713 
-0.099936 
-0.0991342 
-0.098308 
-0.0974577 
-0.0965833 
-0.0956851 
-0.0947633 
-0.0938181 
-0.0928497 
-0.0918584 
-0.0908443 
-0.0898076 
-0.0887487 
-0.0876678 
-0.0865651 
-0.0854409 
-0.0842954 
-0.0831289 
-0.0819416 
-0.0807339 
-0.0795061 
-0.0782584 
-0.0769911 
-0.0757044 
-0.0743989 
-0.0730746 
-0.071732 
-0.0703713 
-0.0689929 
-0.0675971 
-0.0661843 
-0.0647547 
-0.0633088 
-0.0618468 
-0.0603692 
-0.0588762 
-0.0573683 
-0.0558458 
-0.054309 
-0.0527584 
-0.0511943 
-0.0496171 
-0.0480272 
-0.046425 
-0.0448108 
-0.0431851 
-0.0415482 
-0.0399006 
-0.0382427 
-0.0365748 
-0.0348973 
-0.0332108 
-0.0315156 
-0.0298121 
-0.0281007 
-0.0263819 
-0.0246561 
-0.0229237 
-0.0211851 
-0.0194408 
-0.0176912 
-0.0159367 
-0.0141779 
-0.012415 
-0.0106485 
-0.008879 
-0.00710678 
-0.00533233 
-0.00355609 
-0.0017785 
3.33947e-11 
-0.113447 
-0.113433 
-0.113392 
-0.113323 
-0.113227 
-0.113104 
-0.112953 
-0.112775 
-0.11257 
-0.112337 
-0.112077 
-0.11179 
-0.111476 
-0.111135 
-0.110767 
-0.110372 
-0.10995 
-0.109502 
-0.109026 
-0.108525 
-0.107997 
-0.107442 
-0.106862 
-0.106255 
-0.105623 
-0.104964 
-0.10428 
-0.103571 
-0.102836 
-0.102075 
-0.10129 
-0.10048 
-0.0996454 
-0.0987861 
-0.0979024 
-0.0969947 
-0.0960629 
-0.0951075 
-0.0941285 
-0.0931263 
-0.0921009 
-0.0910528 
-0.089982 
-0.0888888 
-0.0877735 
-0.0866364 
-0.0854776 
-0.0842976 
-0.0830964 
-0.0818744 
-0.080632 
-0.0793693 
-0.0780867 
-0.0767844 
-0.0754628 
-0.0741222 
-0.0727629 
-0.0713852 
-0.0699894 
-0.068576 
-0.0671451 
-0.0656971 
-0.0642325 
-0.0627515 
-0.0612544 
-0.0597417 
-0.0582138 
-0.0566709 
-0.0551134 
-0.0535418 
-0.0519564 
-0.0503576 
-0.0487457 
-0.0471212 
-0.0454845 
-0.043836 
-0.042176 
-0.0405049 
-0.0388233 
-0.0371314 
-0.0354298 
-0.0337187 
-0.0319987 
-0.0302702 
-0.0285335 
-0.0267892 
-0.0250376 
-0.0232792 
-0.0215144 
-0.0197437 
-0.0179675 
-0.0161862 
-0.0144003 
-0.0126102 
-0.0108163 
-0.00901922 
-0.00721926 
-0.0054169 
-0.00361261 
-0.00180682 
3.39277e-11 
-0.114977 
-0.114963 
-0.114921 
-0.114852 
-0.114755 
-0.114631 
-0.114479 
-0.114299 
-0.114092 
-0.113857 
-0.113595 
-0.113305 
-0.112988 
-0.112644 
-0.112272 
-0.111874 
-0.111448 
-0.110995 
-0.110516 
-0.110009 
-0.109476 
-0.108916 
-0.10833 
-0.107717 
-0.107079 
-0.106414 
-0.105723 
-0.105006 
-0.104264 
-0.103496 
-0.102702 
-0.101884 
-0.10104 
-0.100172 
-0.0992791 
-0.0983616 
-0.0974198 
-0.096454 
-0.0954643 
-0.094451 
-0.0934142 
-0.0923543 
-0.0912713 
-0.0901657 
-0.0890376 
-0.0878873 
-0.086715 
-0.085521 
-0.0843055 
-0.0830689 
-0.0818115 
-0.0805334 
-0.079235 
-0.0779167 
-0.0765786 
-0.0752211 
-0.0738446 
-0.0724493 
-0.0710356 
-0.0696038 
-0.0681542 
-0.0666873 
-0.0652032 
-0.0637024 
-0.0621852 
-0.0606521 
-0.0591032 
-0.0575392 
-0.0559602 
-0.0543667 
-0.052759 
-0.0511376 
-0.0495028 
-0.0478551 
-0.0461948 
-0.0445223 
-0.0428381 
-0.0411426 
-0.0394361 
-0.037719 
-0.0359919 
-0.0342551 
-0.0325091 
-0.0307542 
-0.028991 
-0.0272198 
-0.0254411 
-0.0236553 
-0.0218629 
-0.0200643 
-0.01826 
-0.0164503 
-0.0146358 
-0.0128169 
-0.0109941 
-0.00916782 
-0.00733848 
-0.00550657 
-0.00367255 
-0.00183687 
3.44932e-11 
-0.116567 
-0.116553 
-0.116511 
-0.116442 
-0.116344 
-0.116218 
-0.116065 
-0.115884 
-0.115674 
-0.115438 
-0.115173 
-0.114881 
-0.114561 
-0.114213 
-0.113838 
-0.113436 
-0.113006 
-0.112549 
-0.112065 
-0.111554 
-0.111016 
-0.110451 
-0.109859 
-0.10924 
-0.108595 
-0.107924 
-0.107226 
-0.106502 
-0.105752 
-0.104976 
-0.104175 
-0.103348 
-0.102496 
-0.101618 
-0.100716 
-0.0997884 
-0.0988365 
-0.0978601 
-0.0968596 
-0.095835 
-0.0947866 
-0.0937147 
-0.0926194 
-0.0915011 
-0.0903599 
-0.0891961 
-0.0880099 
-0.0868017 
-0.0855716 
-0.08432 
-0.0830471 
-0.0817532 
-0.0804387 
-0.0791037 
-0.0777487 
-0.0763739 
-0.0749796 
-0.0735662 
-0.0721339 
-0.0706832 
-0.0692143 
-0.0677275 
-0.0662233 
-0.064702 
-0.063164 
-0.0616095 
-0.060039 
-0.0584529 
-0.0568514 
-0.0552351 
-0.0536043 
-0.0519593 
-0.0503006 
-0.0486286 
-0.0469436 
-0.0452462 
-0.0435366 
-0.0418153 
-0.0400828 
-0.0383394 
-0.0365855 
-0.0348217 
-0.0330483 
-0.0312658 
-0.0294745 
-0.0276751 
-0.0258678 
-0.0240531 
-0.0222316 
-0.0204036 
-0.0185695 
-0.01673 
-0.0148853 
-0.013036 
-0.0111825 
-0.0093253 
-0.00746486 
-0.00560165 
-0.00373612 
-0.00186875 
3.50933e-11 
-0.118221 
-0.118206 
-0.118164 
-0.118094 
-0.117995 
-0.117869 
-0.117714 
-0.117531 
-0.11732 
-0.117081 
-0.116814 
-0.116519 
-0.116196 
-0.115846 
-0.115467 
-0.115061 
-0.114628 
-0.114167 
-0.113678 
-0.113162 
-0.112619 
-0.112048 
-0.111451 
-0.110826 
-0.110175 
-0.109497 
-0.108792 
-0.108061 
-0.107304 
-0.10652 
-0.105711 
-0.104875 
-0.104014 
-0.103127 
-0.102215 
-0.101278 
-0.100316 
-0.0993286 
-0.098317 
-0.097281 
-0.0962208 
-0.0951367 
-0.0940289 
-0.0928975 
-0.091743 
-0.0905654 
-0.0893651 
-0.0881423 
-0.0868972 
-0.0856302 
-0.0843416 
-0.0830315 
-0.0817003 
-0.0803483 
-0.0789758 
-0.0775831 
-0.0761705 
-0.0747383 
-0.0732869 
-0.0718166 
-0.0703277 
-0.0688205 
-0.0672955 
-0.0657529 
-0.0641931 
-0.0626165 
-0.0610235 
-0.0594144 
-0.0577896 
-0.0561495 
-0.0544945 
-0.0528249 
-0.0511412 
-0.0494438 
-0.0477331 
-0.0460095 
-0.0442733 
-0.0425251 
-0.0407653 
-0.0389942 
-0.0372123 
-0.0354201 
-0.0336179 
-0.0318063 
-0.0299856 
-0.0281564 
-0.026319 
-0.0244739 
-0.0226216 
-0.0207626 
-0.0188972 
-0.017026 
-0.0151495 
-0.013268 
-0.0113821 
-0.0094922 
-0.00759883 
-0.00570245 
-0.00380354 
-0.00190256 
3.57299e-11 
-0.119939 
-0.119925 
-0.119882 
-0.119811 
-0.119712 
-0.119584 
-0.119428 
-0.119243 
-0.119031 
-0.11879 
-0.11852 
-0.118223 
-0.117897 
-0.117544 
-0.117162 
-0.116752 
-0.116315 
-0.11585 
-0.115356 
-0.114836 
-0.114287 
-0.113712 
-0.113108 
-0.112478 
-0.111821 
-0.111136 
-0.110424 
-0.109686 
-0.108921 
-0.10813 
-0.107312 
-0.106468 
-0.105598 
-0.104702 
-0.10378 
-0.102833 
-0.10186 
-0.100862 
-0.0998393 
-0.0987917 
-0.0977196 
-0.0966231 
-0.0955025 
-0.0943579 
-0.0931898 
-0.0919982 
-0.0907834 
-0.0895457 
-0.0882853 
-0.0870026 
-0.0856977 
-0.084371 
-0.0830227 
-0.0816532 
-0.0802627 
-0.0788515 
-0.0774201 
-0.0759685 
-0.0744973 
-0.0730067 
-0.0714971 
-0.0699688 
-0.0684222 
-0.0668575 
-0.0652752 
-0.0636757 
-0.0620592 
-0.0604262 
-0.0587771 
-0.0571123 
-0.055432 
-0.0537368 
-0.052027 
-0.0503031 
-0.0485654 
-0.0468144 
-0.0450505 
-0.043274 
-0.0414856 
-0.0396854 
-0.0378741 
-0.0360521 
-0.0342197 
-0.0323775 
-0.0305258 
-0.0286652 
-0.0267962 
-0.024919 
-0.0230343 
-0.0211425 
-0.0192441 
-0.0173395 
-0.0154292 
-0.0135138 
-0.0115935 
-0.00966908 
-0.00774085 
-0.00580934 
-0.00387503 
-0.00193842 
3.64054e-11 
-0.121725 
-0.121711 
-0.121668 
-0.121596 
-0.121496 
-0.121367 
-0.12121 
-0.121024 
-0.120809 
-0.120566 
-0.120295 
-0.119995 
-0.119666 
-0.11931 
-0.118925 
-0.118511 
-0.11807 
-0.117601 
-0.117103 
-0.116578 
-0.116024 
-0.115443 
-0.114835 
-0.114198 
-0.113534 
-0.112843 
-0.112125 
-0.111379 
-0.110607 
-0.109808 
-0.108981 
-0.108129 
-0.10725 
-0.106344 
-0.105413 
-0.104455 
-0.103472 
-0.102464 
-0.101429 
-0.10037 
-0.0992858 
-0.0981768 
-0.0970432 
-0.0958852 
-0.0947031 
-0.0934972 
-0.0922677 
-0.0910148 
-0.0897387 
-0.0884398 
-0.0871184 
-0.0857746 
-0.0844088 
-0.0830212 
-0.0816122 
-0.0801821 
-0.0787311 
-0.0772597 
-0.075768 
-0.0742565 
-0.0727255 
-0.0711753 
-0.0696062 
-0.0680187 
-0.066413 
-0.0647896 
-0.0631488 
-0.061491 
-0.0598166 
-0.0581259 
-0.0564194 
-0.0546974 
-0.0529604 
-0.0512088 
-0.0494429 
-0.0476632 
-0.0458702 
-0.0440642 
-0.0422457 
-0.0404152 
-0.038573 
-0.0367196 
-0.0348555 
-0.032981 
-0.0310968 
-0.0292032 
-0.0273008 
-0.0253898 
-0.023471 
-0.0215446 
-0.0196113 
-0.0176714 
-0.0157255 
-0.0137741 
-0.0118176 
-0.00985653 
-0.00789138 
-0.00592266 
-0.00395085 
-0.00197647 
3.7122e-11 
-0.123582 
-0.123567 
-0.123524 
-0.123452 
-0.123351 
-0.123221 
-0.123062 
-0.122875 
-0.122658 
-0.122413 
-0.12214 
-0.121837 
-0.121506 
-0.121146 
-0.120758 
-0.120341 
-0.119896 
-0.119423 
-0.118921 
-0.118391 
-0.117833 
-0.117246 
-0.116632 
-0.11599 
-0.11532 
-0.114622 
-0.113897 
-0.113144 
-0.112364 
-0.111557 
-0.110723 
-0.109861 
-0.108973 
-0.108058 
-0.107117 
-0.106149 
-0.105156 
-0.104136 
-0.10309 
-0.102019 
-0.100923 
-0.0998008 
-0.098654 
-0.0974824 
-0.0962862 
-0.0950657 
-0.0938211 
-0.0925526 
-0.0912606 
-0.0899452 
-0.0886067 
-0.0872454 
-0.0858616 
-0.0844555 
-0.0830275 
-0.0815778 
-0.0801068 
-0.0786148 
-0.077102 
-0.0755689 
-0.0740157 
-0.0724429 
-0.0708506 
-0.0692394 
-0.0676095 
-0.0659613 
-0.0642952 
-0.0626115 
-0.0609107 
-0.0591932 
-0.0574593 
-0.0557094 
-0.0539439 
-0.0521633 
-0.050368 
-0.0485584 
-0.0467349 
-0.0448979 
-0.043048 
-0.0411855 
-0.0393109 
-0.0374246 
-0.0355271 
-0.0336189 
-0.0317003 
-0.029772 
-0.0278344 
-0.0258878 
-0.023933 
-0.0219702 
-0.02 
-0.0180229 
-0.0160393 
-0.0140499 
-0.012055 
-0.0100552 
-0.00805095 
-0.00604281 
-0.00403126 
-0.00201682 
3.78824e-11 
-0.125512 
-0.125497 
-0.125453 
-0.125381 
-0.125279 
-0.125148 
-0.124988 
-0.124799 
-0.124581 
-0.124334 
-0.124058 
-0.123753 
-0.123419 
-0.123057 
-0.122665 
-0.122245 
-0.121796 
-0.121319 
-0.120813 
-0.120278 
-0.119715 
-0.119123 
-0.118504 
-0.117856 
-0.117179 
-0.116475 
-0.115743 
-0.114983 
-0.114196 
-0.113381 
-0.112538 
-0.111668 
-0.110771 
-0.109847 
-0.108896 
-0.107918 
-0.106913 
-0.105882 
-0.104825 
-0.103742 
-0.102633 
-0.101498 
-0.100338 
-0.0991526 
-0.0979421 
-0.0967067 
-0.0954468 
-0.0941625 
-0.092854 
-0.0915217 
-0.0901658 
-0.0887866 
-0.0873843 
-0.0859592 
-0.0845117 
-0.0830419 
-0.0815502 
-0.080037 
-0.0785025 
-0.076947 
-0.075371 
-0.0737746 
-0.0721584 
-0.0705225 
-0.0688675 
-0.0671936 
-0.0655012 
-0.0637907 
-0.0620624 
-0.0603169 
-0.0585544 
-0.0567754 
-0.0549803 
-0.0531694 
-0.0513433 
-0.0495024 
-0.047647 
-0.0457776 
-0.0438947 
-0.0419987 
-0.04009 
-0.0381692 
-0.0362366 
-0.0342928 
-0.0323382 
-0.0303734 
-0.0283987 
-0.0264146 
-0.0244217 
-0.0224205 
-0.0204114 
-0.0183949 
-0.0163716 
-0.014342 
-0.0123065 
-0.0102657 
-0.0082201 
-0.0061702 
-0.00411654 
-0.00205963 
3.86891e-11 
-0.127518 
-0.127503 
-0.127459 
-0.127386 
-0.127283 
-0.127151 
-0.12699 
-0.1268 
-0.12658 
-0.126331 
-0.126053 
-0.125746 
-0.125409 
-0.125044 
-0.124649 
-0.124226 
-0.123773 
-0.123292 
-0.122781 
-0.122242 
-0.121674 
-0.121078 
-0.120452 
-0.119799 
-0.119116 
-0.118406 
-0.117667 
-0.1169 
-0.116105 
-0.115282 
-0.114431 
-0.113553 
-0.112646 
-0.111713 
-0.110752 
-0.109764 
-0.108748 
-0.107706 
-0.106638 
-0.105542 
-0.104421 
-0.103273 
-0.102099 
-0.100899 
-0.0996742 
-0.0984238 
-0.0971482 
-0.0958477 
-0.0945225 
-0.093173 
-0.0917993 
-0.0904016 
-0.0889804 
-0.0875358 
-0.0860681 
-0.0845777 
-0.0830648 
-0.0815297 
-0.0799727 
-0.0783942 
-0.0767945 
-0.0751739 
-0.0735327 
-0.0718714 
-0.0701903 
-0.0684896 
-0.0667699 
-0.0650315 
-0.0632747 
-0.0615 
-0.0597078 
-0.0578984 
-0.0560723 
-0.0542299 
-0.0523716 
-0.0504978 
-0.0486091 
-0.0467057 
-0.0447882 
-0.0428571 
-0.0409127 
-0.0389556 
-0.0369862 
-0.035005 
-0.0330125 
-0.0310091 
-0.0289954 
-0.0269718 
-0.0249389 
-0.0228971 
-0.0208469 
-0.0187889 
-0.0167236 
-0.0146514 
-0.012573 
-0.0104888 
-0.0083994 
-0.00630528 
-0.00420697 
-0.00210504 
3.9545e-11 
-0.129603 
-0.129588 
-0.129543 
-0.12947 
-0.129366 
-0.129234 
-0.129071 
-0.128879 
-0.128658 
-0.128407 
-0.128127 
-0.127818 
-0.127479 
-0.12711 
-0.126713 
-0.126286 
-0.12583 
-0.125344 
-0.12483 
-0.124286 
-0.123714 
-0.123112 
-0.122482 
-0.121822 
-0.121134 
-0.120417 
-0.119672 
-0.118898 
-0.118095 
-0.117264 
-0.116405 
-0.115518 
-0.114603 
-0.11366 
-0.112689 
-0.11169 
-0.110664 
-0.109611 
-0.10853 
-0.107423 
-0.106289 
-0.105127 
-0.10394 
-0.102726 
-0.101486 
-0.10022 
-0.0989288 
-0.0976118 
-0.0962696 
-0.0949024 
-0.0935104 
-0.092094 
-0.0906533 
-0.0891887 
-0.0877004 
-0.0861887 
-0.0846539 
-0.0830963 
-0.0815161 
-0.0799138 
-0.0782897 
-0.076644 
-0.0749771 
-0.0732893 
-0.0715811 
-0.0698528 
-0.0681047 
-0.0663372 
-0.0645508 
-0.0627457 
-0.0609225 
-0.0590814 
-0.057223 
-0.0553476 
-0.0534556 
-0.0515476 
-0.0496239 
-0.047685 
-0.0457313 
-0.0437633 
-0.0417814 
-0.0397862 
-0.0377781 
-0.0357576 
-0.0337251 
-0.0316813 
-0.0296264 
-0.0275612 
-0.025486 
-0.0234014 
-0.0213079 
-0.019206 
-0.0170963 
-0.0149792 
-0.0128554 
-0.0107253 
-0.00858947 
-0.00644849 
-0.00430288 
-0.0021532 
4.04531e-11 
-0.13177 
-0.131755 
-0.13171 
-0.131636 
-0.131532 
-0.131398 
-0.131235 
-0.131042 
-0.130819 
-0.130566 
-0.130284 
-0.129972 
-0.129631 
-0.12926 
-0.128859 
-0.128429 
-0.12797 
-0.127481 
-0.126962 
-0.126414 
-0.125837 
-0.12523 
-0.124595 
-0.12393 
-0.123236 
-0.122512 
-0.12176 
-0.120979 
-0.120169 
-0.119331 
-0.118464 
-0.117568 
-0.116644 
-0.115691 
-0.11471 
-0.113701 
-0.112665 
-0.1116 
-0.110508 
-0.109388 
-0.108241 
-0.107066 
-0.105865 
-0.104636 
-0.103381 
-0.1021 
-0.100792 
-0.0994585 
-0.0980989 
-0.0967137 
-0.0953031 
-0.0938674 
-0.0924069 
-0.0909217 
-0.0894122 
-0.0878786 
-0.0863213 
-0.0847404 
-0.0831364 
-0.0815096 
-0.0798601 
-0.0781885 
-0.076495 
-0.0747799 
-0.0730436 
-0.0712865 
-0.069509 
-0.0677113 
-0.065894 
-0.0640573 
-0.0622017 
-0.0603277 
-0.0584355 
-0.0565256 
-0.0545985 
-0.0526546 
-0.0506943 
-0.0487182 
-0.0467265 
-0.0447199 
-0.0426987 
-0.0406635 
-0.0386147 
-0.0365529 
-0.0344784 
-0.0323919 
-0.0302938 
-0.0281846 
-0.0260649 
-0.0239351 
-0.0217959 
-0.0196476 
-0.017491 
-0.0153265 
-0.0131546 
-0.0109759 
-0.00879094 
-0.00660033 
-0.00440459 
-0.00220429 
4.14166e-11 
-0.134022 
-0.134007 
-0.133963 
-0.133888 
-0.133783 
-0.133648 
-0.133484 
-0.13329 
-0.133065 
-0.132811 
-0.132527 
-0.132213 
-0.131869 
-0.131496 
-0.131092 
-0.130659 
-0.130196 
-0.129703 
-0.129181 
-0.128629 
-0.128047 
-0.127436 
-0.126795 
-0.126125 
-0.125425 
-0.124695 
-0.123937 
-0.123149 
-0.122332 
-0.121485 
-0.12061 
-0.119706 
-0.118773 
-0.117811 
-0.11682 
-0.115801 
-0.114753 
-0.113677 
-0.112573 
-0.111441 
-0.110281 
-0.109093 
-0.107877 
-0.106634 
-0.105364 
-0.104067 
-0.102742 
-0.101392 
-0.100014 
-0.0986107 
-0.0971811 
-0.0957257 
-0.0942448 
-0.0927386 
-0.0912073 
-0.0896513 
-0.0880708 
-0.0864661 
-0.0848375 
-0.0831852 
-0.0815097 
-0.0798113 
-0.0780902 
-0.0763468 
-0.0745814 
-0.0727945 
-0.0709863 
-0.0691573 
-0.0673078 
-0.0654383 
-0.063549 
-0.0616405 
-0.0597131 
-0.0577673 
-0.0558034 
-0.053822 
-0.0518235 
-0.0498083 
-0.0477769 
-0.0457297 
-0.0436673 
-0.0415901 
-0.0394985 
-0.0373932 
-0.0352746 
-0.0331432 
-0.0309995 
-0.028844 
-0.0266773 
-0.0245 
-0.0223124 
-0.0201152 
-0.017909 
-0.0156943 
-0.0134715 
-0.0112414 
-0.00900451 
-0.00676132 
-0.00451246 
-0.00225849 
4.24389e-11 
-0.136364 
-0.136349 
-0.136304 
-0.136228 
-0.136123 
-0.135988 
-0.135822 
-0.135626 
-0.135401 
-0.135145 
-0.134859 
-0.134543 
-0.134197 
-0.133821 
-0.133415 
-0.132979 
-0.132512 
-0.132016 
-0.13149 
-0.130934 
-0.130348 
-0.129732 
-0.129086 
-0.12841 
-0.127705 
-0.12697 
-0.126205 
-0.12541 
-0.124586 
-0.123732 
-0.122848 
-0.121936 
-0.120994 
-0.120022 
-0.119022 
-0.117992 
-0.116934 
-0.115846 
-0.11473 
-0.113586 
-0.112412 
-0.111211 
-0.109981 
-0.108723 
-0.107438 
-0.106124 
-0.104783 
-0.103415 
-0.10202 
-0.100598 
-0.0991485 
-0.097673 
-0.0961712 
-0.0946434 
-0.0930899 
-0.0915108 
-0.0899065 
-0.0882772 
-0.0866232 
-0.0849448 
-0.0832424 
-0.0815162 
-0.0797666 
-0.0779939 
-0.0761984 
-0.0743805 
-0.0725406 
-0.070679 
-0.0687961 
-0.0668922 
-0.0649679 
-0.0630235 
-0.0610594 
-0.059076 
-0.0570737 
-0.0550531 
-0.0530145 
-0.0509585 
-0.0488854 
-0.0467957 
-0.04469 
-0.0425687 
-0.0404322 
-0.0382812 
-0.0361161 
-0.0339375 
-0.0317458 
-0.0295415 
-0.0273253 
-0.0250977 
-0.0228592 
-0.0206103 
-0.0183517 
-0.0160839 
-0.0138074 
-0.0115229 
-0.0092309 
-0.00693202 
-0.00462685 
-0.00231597 
4.35235e-11 
-0.138798 
-0.138783 
-0.138737 
-0.138662 
-0.138556 
-0.138419 
-0.138253 
-0.138056 
-0.137829 
-0.137572 
-0.137284 
-0.136966 
-0.136618 
-0.13624 
-0.135831 
-0.135392 
-0.134923 
-0.134423 
-0.133893 
-0.133333 
-0.132743 
-0.132122 
-0.131472 
-0.130791 
-0.13008 
-0.129339 
-0.128567 
-0.127766 
-0.126935 
-0.126074 
-0.125182 
-0.124261 
-0.12331 
-0.12233 
-0.12132 
-0.12028 
-0.11921 
-0.118112 
-0.116984 
-0.115826 
-0.11464 
-0.113425 
-0.112181 
-0.110908 
-0.109607 
-0.108277 
-0.106919 
-0.105534 
-0.10412 
-0.102678 
-0.10121 
-0.0997136 
-0.0981905 
-0.0966406 
-0.0950641 
-0.0934614 
-0.0918326 
-0.090178 
-0.0884979 
-0.0867926 
-0.0850624 
-0.0833075 
-0.0815284 
-0.0797253 
-0.0778986 
-0.0760486 
-0.0741757 
-0.0722802 
-0.0703626 
-0.0684231 
-0.0664623 
-0.0644804 
-0.0624779 
-0.0604553 
-0.058413 
-0.0563514 
-0.0542709 
-0.052172 
-0.0500553 
-0.047921 
-0.0457699 
-0.0436022 
-0.0414186 
-0.0392196 
-0.0370056 
-0.0347772 
-0.032535 
-0.0302793 
-0.0280109 
-0.0257303 
-0.023438 
-0.0211345 
-0.0188205 
-0.0164966 
-0.0141633 
-0.0118212 
-0.00947088 
-0.00711301 
-0.00474816 
-0.00237695 
4.46742e-11 
-0.141328 
-0.141312 
-0.141267 
-0.141191 
-0.141084 
-0.140947 
-0.14078 
-0.140582 
-0.140354 
-0.140095 
-0.139806 
-0.139486 
-0.139136 
-0.138755 
-0.138344 
-0.137902 
-0.13743 
-0.136927 
-0.136394 
-0.13583 
-0.135236 
-0.134611 
-0.133956 
-0.13327 
-0.132554 
-0.131807 
-0.13103 
-0.130222 
-0.129384 
-0.128515 
-0.127616 
-0.126687 
-0.125727 
-0.124738 
-0.123718 
-0.122668 
-0.121587 
-0.120477 
-0.119337 
-0.118168 
-0.116968 
-0.115739 
-0.114481 
-0.113193 